version 2
run DataCentricScenario_4-0-20121022-16:51:32-2252
attr configname DataCentricScenario_4
attr datetime 20121022-16:51:32
attr experiment DataCentricScenario_4
attr inifile DataCentric.ini
attr iterationvars ""
attr iterationvars2 $repetition=0
attr measurement ""
attr network DataCentricNet
attr processid 2252
attr repetition 0
attr replication #0
attr resultdir results
attr runnumber 0
attr seedset 0

vector 8  DataCentricNet.host[0].net  InterestInterDepartureTimesVector  ETV
vector 1377  DataCentricNet.dataCentricNetworkMan  helloPacketFrequency  ETV
vector 1382  DataCentricNet.dataCentricNetworkMan  reinforcementPacketFrequency  ETV
vector 1384  DataCentricNet.dataCentricNetworkMan  breakagePacketFrequency  ETV
vector 1361  DataCentricNet.host[123].net  InterestInterDepartureTimesVector  ETV
vector 360  DataCentricNet.host[32].net  InterestInterDepartureTimesVector  ETV
vector 261  DataCentricNet.host[23].net  InterestInterDepartureTimesVector  ETV
vector 1251  DataCentricNet.host[113].net  InterestInterDepartureTimesVector  ETV
vector 371  DataCentricNet.host[33].net  InterestInterDepartureTimesVector  ETV
vector 382  DataCentricNet.host[34].net  InterestInterDepartureTimesVector  ETV
vector 74  DataCentricNet.host[6].net  InterestInterDepartureTimesVector  ETV
vector 547  DataCentricNet.host[49].net  InterestInterDepartureTimesVector  ETV
vector 173  DataCentricNet.host[15].net  InterestInterDepartureTimesVector  ETV
vector 1185  DataCentricNet.host[107].net  InterestInterDepartureTimesVector  ETV
vector 1372  DataCentricNet.host[124].net  InterestInterDepartureTimesVector  ETV
vector 30  DataCentricNet.host[2].net  InterestInterDepartureTimesVector  ETV
vector 635  DataCentricNet.host[57].net  InterestInterDepartureTimesVector  ETV
vector 998  DataCentricNet.host[90].net  InterestInterDepartureTimesVector  ETV
vector 41  DataCentricNet.host[3].net  InterestInterDepartureTimesVector  ETV
vector 921  DataCentricNet.host[83].net  InterestInterDepartureTimesVector  ETV
vector 503  DataCentricNet.host[45].net  InterestInterDepartureTimesVector  ETV
vector 712  DataCentricNet.host[64].net  InterestInterDepartureTimesVector  ETV
vector 459  DataCentricNet.host[41].net  InterestInterDepartureTimesVector  ETV
vector 888  DataCentricNet.host[80].net  InterestInterDepartureTimesVector  ETV
vector 943  DataCentricNet.host[85].net  InterestInterDepartureTimesVector  ETV
vector 1240  DataCentricNet.host[112].net  InterestInterDepartureTimesVector  ETV
vector 19  DataCentricNet.host[1].net  InterestInterDepartureTimesVector  ETV
vector 118  DataCentricNet.host[10].net  InterestInterDepartureTimesVector  ETV
vector 987  DataCentricNet.host[89].net  InterestInterDepartureTimesVector  ETV
vector 932  DataCentricNet.host[84].net  InterestInterDepartureTimesVector  ETV
vector 558  DataCentricNet.host[50].net  InterestInterDepartureTimesVector  ETV
vector 85  DataCentricNet.host[7].net  InterestInterDepartureTimesVector  ETV
vector 426  DataCentricNet.host[38].net  InterestInterDepartureTimesVector  ETV
vector 580  DataCentricNet.host[52].net  InterestInterDepartureTimesVector  ETV
vector 954  DataCentricNet.host[86].net  InterestInterDepartureTimesVector  ETV
vector 1328  DataCentricNet.host[120].net  InterestInterDepartureTimesVector  ETV
vector 217  DataCentricNet.host[19].net  InterestInterDepartureTimesVector  ETV
vector 1163  DataCentricNet.host[105].net  InterestInterDepartureTimesVector  ETV
vector 448  DataCentricNet.host[40].net  InterestInterDepartureTimesVector  ETV
vector 305  DataCentricNet.host[27].net  InterestInterDepartureTimesVector  ETV
vector 811  DataCentricNet.host[73].net  InterestInterDepartureTimesVector  ETV
vector 294  DataCentricNet.host[26].net  InterestInterDepartureTimesVector  ETV
vector 690  DataCentricNet.host[62].net  InterestInterDepartureTimesVector  ETV
vector 162  DataCentricNet.host[14].net  InterestInterDepartureTimesVector  ETV
vector 1141  DataCentricNet.host[103].net  InterestInterDepartureTimesVector  ETV
vector 613  DataCentricNet.host[55].net  InterestInterDepartureTimesVector  ETV
vector 206  DataCentricNet.host[18].net  InterestInterDepartureTimesVector  ETV
vector 404  DataCentricNet.host[36].net  InterestInterDepartureTimesVector  ETV
vector 877  DataCentricNet.host[79].net  InterestInterDepartureTimesVector  ETV
vector 1064  DataCentricNet.host[96].net  InterestInterDepartureTimesVector  ETV
vector 327  DataCentricNet.host[29].net  InterestInterDepartureTimesVector  ETV
vector 789  DataCentricNet.host[71].net  InterestInterDepartureTimesVector  ETV
vector 1306  DataCentricNet.host[118].net  InterestInterDepartureTimesVector  ETV
vector 415  DataCentricNet.host[37].net  InterestInterDepartureTimesVector  ETV
vector 239  DataCentricNet.host[21].net  InterestInterDepartureTimesVector  ETV
vector 1284  DataCentricNet.host[116].net  InterestInterDepartureTimesVector  ETV
vector 778  DataCentricNet.host[70].net  InterestInterDepartureTimesVector  ETV
vector 910  DataCentricNet.host[82].net  InterestInterDepartureTimesVector  ETV
vector 525  DataCentricNet.host[47].net  InterestInterDepartureTimesVector  ETV
vector 965  DataCentricNet.host[87].net  InterestInterDepartureTimesVector  ETV
vector 96  DataCentricNet.host[8].net  InterestInterDepartureTimesVector  ETV
vector 1152  DataCentricNet.host[104].net  InterestInterDepartureTimesVector  ETV
vector 844  DataCentricNet.host[76].net  InterestInterDepartureTimesVector  ETV
vector 1020  DataCentricNet.host[92].net  InterestInterDepartureTimesVector  ETV
vector 1229  DataCentricNet.host[111].net  InterestInterDepartureTimesVector  ETV
vector 866  DataCentricNet.host[78].net  InterestInterDepartureTimesVector  ETV
vector 52  DataCentricNet.host[4].net  InterestInterDepartureTimesVector  ETV
vector 745  DataCentricNet.host[67].net  InterestInterDepartureTimesVector  ETV
vector 481  DataCentricNet.host[43].net  InterestInterDepartureTimesVector  ETV
vector 1086  DataCentricNet.host[98].net  InterestInterDepartureTimesVector  ETV
vector 1295  DataCentricNet.host[117].net  InterestInterDepartureTimesVector  ETV
vector 437  DataCentricNet.host[39].net  InterestInterDepartureTimesVector  ETV
vector 767  DataCentricNet.host[69].net  InterestInterDepartureTimesVector  ETV
vector 1262  DataCentricNet.host[114].net  InterestInterDepartureTimesVector  ETV
vector 756  DataCentricNet.host[68].net  InterestInterDepartureTimesVector  ETV
vector 140  DataCentricNet.host[12].net  InterestInterDepartureTimesVector  ETV
vector 679  DataCentricNet.host[61].net  InterestInterDepartureTimesVector  ETV
vector 569  DataCentricNet.host[51].net  InterestInterDepartureTimesVector  ETV
vector 393  DataCentricNet.host[35].net  InterestInterDepartureTimesVector  ETV
vector 833  DataCentricNet.host[75].net  InterestInterDepartureTimesVector  ETV
vector 1053  DataCentricNet.host[95].net  InterestInterDepartureTimesVector  ETV
vector 1339  DataCentricNet.host[121].net  InterestInterDepartureTimesVector  ETV
vector 1009  DataCentricNet.host[91].net  InterestInterDepartureTimesVector  ETV
vector 184  DataCentricNet.host[16].net  InterestInterDepartureTimesVector  ETV
vector 1218  DataCentricNet.host[110].net  InterestInterDepartureTimesVector  ETV
vector 151  DataCentricNet.host[13].net  InterestInterDepartureTimesVector  ETV
vector 822  DataCentricNet.host[74].net  InterestInterDepartureTimesVector  ETV
vector 107  DataCentricNet.host[9].net  InterestInterDepartureTimesVector  ETV
vector 536  DataCentricNet.host[48].net  InterestInterDepartureTimesVector  ETV
vector 701  DataCentricNet.host[63].net  InterestInterDepartureTimesVector  ETV
vector 976  DataCentricNet.host[88].net  InterestInterDepartureTimesVector  ETV
vector 272  DataCentricNet.host[24].net  InterestInterDepartureTimesVector  ETV
vector 338  DataCentricNet.host[30].net  InterestInterDepartureTimesVector  ETV
vector 591  DataCentricNet.host[53].net  InterestInterDepartureTimesVector  ETV
vector 1196  DataCentricNet.host[108].net  InterestInterDepartureTimesVector  ETV
vector 228  DataCentricNet.host[20].net  InterestInterDepartureTimesVector  ETV
vector 1317  DataCentricNet.host[119].net  InterestInterDepartureTimesVector  ETV
vector 855  DataCentricNet.host[77].net  InterestInterDepartureTimesVector  ETV
vector 624  DataCentricNet.host[56].net  InterestInterDepartureTimesVector  ETV
vector 195  DataCentricNet.host[17].net  InterestInterDepartureTimesVector  ETV
vector 1130  DataCentricNet.host[102].net  InterestInterDepartureTimesVector  ETV
vector 250  DataCentricNet.host[22].net  InterestInterDepartureTimesVector  ETV
vector 1075  DataCentricNet.host[97].net  InterestInterDepartureTimesVector  ETV
vector 1042  DataCentricNet.host[94].net  InterestInterDepartureTimesVector  ETV
vector 1119  DataCentricNet.host[101].net  InterestInterDepartureTimesVector  ETV
vector 734  DataCentricNet.host[66].net  InterestInterDepartureTimesVector  ETV
vector 316  DataCentricNet.host[28].net  InterestInterDepartureTimesVector  ETV
vector 349  DataCentricNet.host[31].net  InterestInterDepartureTimesVector  ETV
vector 602  DataCentricNet.host[54].net  InterestInterDepartureTimesVector  ETV
vector 1207  DataCentricNet.host[109].net  InterestInterDepartureTimesVector  ETV
vector 1031  DataCentricNet.host[93].net  InterestInterDepartureTimesVector  ETV
vector 470  DataCentricNet.host[42].net  InterestInterDepartureTimesVector  ETV
vector 723  DataCentricNet.host[65].net  InterestInterDepartureTimesVector  ETV
vector 668  DataCentricNet.host[60].net  InterestInterDepartureTimesVector  ETV
vector 492  DataCentricNet.host[44].net  InterestInterDepartureTimesVector  ETV
vector 657  DataCentricNet.host[59].net  InterestInterDepartureTimesVector  ETV
vector 63  DataCentricNet.host[5].net  InterestInterDepartureTimesVector  ETV
vector 646  DataCentricNet.host[58].net  InterestInterDepartureTimesVector  ETV
vector 1174  DataCentricNet.host[106].net  InterestInterDepartureTimesVector  ETV
vector 514  DataCentricNet.host[46].net  InterestInterDepartureTimesVector  ETV
vector 1350  DataCentricNet.host[122].net  InterestInterDepartureTimesVector  ETV
vector 899  DataCentricNet.host[81].net  InterestInterDepartureTimesVector  ETV
vector 1097  DataCentricNet.host[99].net  InterestInterDepartureTimesVector  ETV
vector 129  DataCentricNet.host[11].net  InterestInterDepartureTimesVector  ETV
vector 283  DataCentricNet.host[25].net  InterestInterDepartureTimesVector  ETV
vector 800  DataCentricNet.host[72].net  InterestInterDepartureTimesVector  ETV
vector 1273  DataCentricNet.host[115].net  InterestInterDepartureTimesVector  ETV
vector 1108  DataCentricNet.host[100].net  InterestInterDepartureTimesVector  ETV
vector 1391  DataCentricNet.dataCentricNetworkMan  demandVector  ETV
vector 1383  DataCentricNet.dataCentricNetworkMan  dataPacketE2EDelay  ETV
8	1148	1.002310208689	0.002310208689
8	16285	1.009861247516	0.007551038827
8	18909	1.011789482739	0.001928235223
8	20520	1.013660252537	0.001870769798
8	24934	1.018786562323	0.005126309786
8	27950	1.023573800399	0.004787238076
8	29537	1.025700152773	0.002126352374
8	31394	1.028760275557	0.003060122784
8	32360	1.029518592359	0.000758316802
8	60414	1.058932604466	0.029414012107
8	104434	1.111721817568	0.052789213102
19	28076	1.023573809925	0.001603736255
19	31457	1.028760279689	0.005186469764
19	35432	1.032919861093	0.004159581404
19	60391	1.058932602562	0.026012741469
19	104638	1.111721826544	0.052789223982
19	122870	1.134854534946	0.023132708402
19	140769	1.159741130937	0.024886595991
19	149201	1.169939331704	0.010198200767
30	27953	1.023573800444	0.00160372604
30	58043	1.056387717025	0.032813916581
30	104551	1.11172182297	0.055334105945
41	27977	1.023573802504	0.00160373377
41	31364	1.028760273309	0.005186470805
41	32352	1.029518590578	0.000758317269
41	35404	1.032919859735	0.003401269157
41	60425	1.058932606144	0.026012746409
41	104470	1.111721818886	0.052789212742
52	31586	1.028760287764	0.000762644717
52	104446	1.111721818305	0.082961530541
52	140729	1.159741128739	0.048019310434
52	193127	1.237347402009	0.07760627327
63	78528	1.07694676718	0.013212146232
63	104644	1.111721826733	0.034775059553
63	105880	1.11401593996	0.002294113227
63	114805	1.123699152431	0.009683212471
74	27923	1.023573798395	0.001603727482
74	31490	1.028760281134	0.005186482739
74	104398	1.111721814135	0.082961533001
74	174904	1.208690070913	0.096968256778
74	193160	1.237347406551	0.028657335638
85	30274	1.026776342932	0.002190771779
85	31475	1.028760280382	0.00198393745
85	35371	1.032919857027	0.004159576645
85	49268	1.04667669464	0.013756837613
85	60367	1.058932601396	0.012255906756
85	104572	1.111721823574	0.052789222178
85	140704	1.159741126916	0.048019303342
96	31547	1.028760283941	0.000762640384
96	60361	1.058932601142	0.030172317201
96	104479	1.111721819295	0.052789218153
96	140685	1.15974112551	0.048019306215
96	193121	1.237347400431	0.077606274921
107	48134	1.045441553379	0.001070327739
107	52188	1.050072110097	0.004630556718
107	96756	1.101393385756	0.051321275659
107	104698	1.111721830239	0.010328444483
107	140794	1.159741133616	0.048019303377
107	166777	1.197001731382	0.037260597766
118	30141	1.026597169915	0.000897019517
118	31526	1.02876028267	0.002163112755
118	72335	1.070522192977	0.041761910307
118	104410	1.111721815488	0.041199622511
129	91587	1.093183303634	0.015125735708
129	104557	1.111721823064	0.01853851943
140	35481	1.032919865145	0.001106471339
140	84456	1.082882505899	0.049962640754
140	89306	1.08994478067	0.007062274771
140	104674	1.111721828576	0.021777047906
140	140773	1.159741131409	0.048019302833
140	159904	1.18561678067	0.025875649261
151	46295	1.042954611846	0.007669898331
151	53681	1.051229083929	0.008274472083
151	58058	1.056387718906	0.005158634977
151	79934	1.078075718906	0.021688
151	87135	1.086626934965	0.008551216059
151	91598	1.093183304771	0.006556369806
151	122925	1.134854540767	0.041671235996
162	31373	1.028760273514	0.001983926697
162	35505	1.032919866228	0.004159592714
162	58031	1.056387714873	0.023467848645
162	60485	1.058932610659	0.002544895786
162	87112	1.086626930204	0.027694319545
162	89913	1.090979714873	0.004352784669
162	104653	1.111721827231	0.020742112358
162	140841	1.159741136183	0.048019308952
162	149225	1.169939337646	0.010198201463
173	27929	1.023573798766	0.001603727514
173	31340	1.028760268907	0.005186470141
173	58061	1.056387719413	0.027627450506
173	104509	1.111721821326	0.055334101913
184	42304	1.039474485419	0.0085981832
184	59651	1.058138485419	0.018664
184	72319	1.070522189858	0.012383704439
184	104464	1.11172181857	0.041199628712
195	59442	1.058027941183	0.002116104417
195	61102	1.060195726652	0.002167785469
195	64471	1.063643726651	0.003447999999
195	95920	1.100295289598	0.036651562947
195	97389	1.10271925409	0.002423964492
195	104554	1.111721822993	0.009002568903
195	140746	1.159741129487	0.048019306494
206	31436	1.028760278664	0.001983933057
206	35510	1.032919866819	0.004159588155
206	46292	1.042954611585	0.010034744766
206	58068	1.056387719827	0.013433108242
206	60478	1.058932610203	0.002544890376
206	87106	1.086626925854	0.027694315651
206	100388	1.106322925854	0.019696
206	104704	1.111721830516	0.005398904662
206	122885	1.134854536378	0.023132705862
206	140851	1.159741136836	0.024886600458
206	149213	1.169939334783	0.010198197947
217	30817	1.027997643524	0.002297490795
217	31583	1.028760287495	0.000762643971
217	56766	1.054913253661	0.026152966166
217	104392	1.111721813784	0.056808560123
228	56826	1.054913258558	0.017891075787
228	104488	1.111721819847	0.056808561289
228	140817	1.159741134824	0.048019314977
228	193195	1.237347408958	0.077606274134
239	31514	1.028760281901	0.001983934225
239	35350	1.03291985486	0.004159572959
239	51032	1.049058111736	0.016138256876
239	60394	1.058932602721	0.009874490985
239	104500	1.111721820531	0.05278921781
239	140667	1.159741123763	0.048019303232
250	61147	1.060195731145	0.014754174914
250	64516	1.063643731144	0.003447999999
250	97431	1.102719258289	0.039075527145
250	104536	1.111721822341	0.009002564052
250	111219	1.119557296767	0.007835474426
250	140766	1.159741130817	0.04018383405
261	27878	1.023573794977	0.001603721274
261	31412	1.028760277021	0.005186482044
261	72355	1.070522194585	0.041761917564
261	104371	1.111721811321	0.041199616736
272	50354	1.047770242968	0.002328686282
272	51119	1.049058119108	0.00128787614
272	72727	1.070876604829	0.021818485721
272	104515	1.111721821625	0.040845216796
272	140698	1.159741126469	0.048019304844
283	91590	1.093183303856	0.016236536966
283	97669	1.102759591162	0.009576287306
283	104641	1.111721826629	0.008962235467
294	30856	1.027997644765	0.001221297223
294	31493	1.028760281378	0.000762636613
294	35344	1.032919852584	0.004159571206
294	60373	1.058932601423	0.026012748839
294	104473	1.111721818978	0.052789217555
294	140658	1.159741121779	0.048019302801
305	30844	1.027997644252	0.001221296556
305	31520	1.028760282308	0.000762638056
305	35377	1.032919857283	0.004159574975
305	60340	1.058932599468	0.026012742185
305	104485	1.111721819841	0.052789220373
305	105072	1.112853677946	0.001131858105
305	140676	1.159741125054	0.046887447108
316	64528	1.063643731843	0.018202178458
316	97471	1.102719259659	0.039075527816
316	104629	1.111721826072	0.009002566413
316	140777	1.15974113182	0.048019305748
327	31481	1.028760280948	0.001983937974
327	35471	1.032919864801	0.004159583853
327	46322	1.042954613129	0.010034748328
327	58082	1.05638772285	0.013433109721
327	60440	1.058932607224	0.002544884374
327	104695	1.111721830223	0.052789222999
327	122897	1.134854536805	0.023132706582
327	140814	1.159741134733	0.024886597928
327	149195	1.169939331166	0.010198196433
338	50366	1.047770243485	0.002328690554
338	51144	1.049058120545	0.00128787706
338	104560	1.111721823388	0.062663702843
338	140726	1.159741128472	0.048019305084
349	66480	1.065763299542	0.028741112908
349	104521	1.111721821787	0.045958522245
349	140797	1.159741133913	0.048019312126
349	193178	1.23734740776	0.077606273847
360	27866	1.023573793738	0.00160372125
360	31415	1.028760277103	0.005186483365
360	72352	1.070522194448	0.041761917345
360	104374	1.111721811623	0.041199617175
371	27899	1.02357379667	0.001603722097
371	31439	1.028760278852	0.005186482182
371	104359	1.111721809577	0.082961530725
382	27902	1.023573797076	0.001603728264
382	31397	1.028760276164	0.005186479088
382	104461	1.111721818533	0.082961542369
382	174895	1.208690068812	0.096968250279
393	35531	1.03291986834	0.00110647428
393	36528	1.033890350717	0.000970482377
393	70961	1.069273117814	0.035382767097
393	84460	1.082882506153	0.013609388339
393	140827	1.159741135086	0.076858628933
404	31451	1.028760279209	0.003060132459
404	72332	1.070522192538	0.041761913329
404	104380	1.111721812597	0.041199620059
415	31502	1.02876028183	0.001983938006
415	35478	1.032919864972	0.004159583142
415	46325	1.042954613698	0.010034748726
415	58090	1.056387723538	0.01343310984
415	60449	1.058932607552	0.002544884014
415	69509	1.068141377135	0.009208769583
415	100385	1.10632292488	0.038181547745
415	104707	1.111721830656	0.005398905776
415	122901	1.134854537332	0.023132706676
415	138836	1.157377674948	0.022523137616
415	140823	1.159741134855	0.002363459907
415	149198	1.169939331585	0.01019819673
426	30775	1.027997638785	0.002297488575
426	31559	1.02876028469	0.000762645905
426	104368	1.111721810817	0.082961526127
437	31610	1.028760289165	0.000762645381
437	104455	1.111721818393	0.082961529228
437	140720	1.159741127704	0.048019309311
437	193136	1.237347402588	0.077606274884
448	30826	1.027997643699	0.002297490981
448	31613	1.028760289194	0.000762645495
448	104386	1.11172181308	0.082961523886
448	140835	1.159741135863	0.048019322783
459	27992	1.023573804241	0.001603733812
459	31376	1.028760273692	0.005186469451
459	35409	1.03291986004	0.004159586348
459	60428	1.058932606395	0.026012746355
459	104494	1.111721820385	0.05278921399
470	66752	1.065850604854	0.00648459273
470	72308	1.070522187275	0.004671582421
470	104467	1.111721818803	0.041199631528
481	31598	1.028760288409	0.001983940637
481	35438	1.032919861365	0.004159572956
481	60388	1.058932602443	0.026012741078
481	104683	1.111721828886	0.052789226443
481	122933	1.134854541457	0.023132712571
481	140750	1.159741129743	0.024886588286
492	70952	1.06927311583	0.032105002089
492	85890	1.08514191903	0.0158688032
492	140838	1.159741135923	0.074599216893
492	170129	1.201988028773	0.04224689285
492	194818	1.241921115827	0.039933087054
492	214865	1.273880115487	0.03195899966
503	27986	1.023573802605	0.00160372881
503	31337	1.028760268751	0.005186466146
503	58040	1.056387716556	0.027627447805
503	87144	1.086626935867	0.030239219311
503	104599	1.111721824852	0.025094888985
514	88256	1.08815658379	0.010099021535
514	92187	1.094960161784	0.006803577994
514	104677	1.111721828791	0.016761667007
514	114818	1.123699155233	0.011977326442
514	123670	1.136075376467	0.012376221234
514	188415	1.231126085873	0.095050709406
514	265812	1.364589504993	0.13346341912
525	31538	1.028760283636	0.001983939294
525	35386	1.032919858227	0.004159574591
525	49271	1.046676695313	0.013756837086
525	60364	1.0589326012	0.012255905887
525	104620	1.111721825697	0.052789224497
525	122891	1.134854536572	0.023132710875
525	140713	1.159741127537	0.024886590965
536	48176	1.045441556555	0.001070326519
536	52191	1.050072111175	0.00463055462
536	70964	1.069273117836	0.019201006661
536	78111	1.076747439113	0.007474321277
536	93952	1.097205148669	0.020457709556
536	140847	1.159741136782	0.062535988113
536	170116	1.201988027504	0.042246890722
547	27926	1.023573798406	0.001603724212
547	31355	1.02876027194	0.005186473534
547	72365	1.070522195259	0.041761923319
547	104431	1.111721817372	0.041199622113
558	30169	1.02659717656	0.000897023491
558	30874	1.027997645717	0.001400469157
558	31595	1.028760288278	0.000762642561
558	104404	1.111721814676	0.082961526398
569	35524	1.032919868016	0.001106473717
569	36531	1.033890352547	0.000970484531
569	70958	1.069273117349	0.035382764802
569	84464	1.082882506392	0.013609389043
569	140820	1.159741134829	0.076858628437
580	30781	1.027997638947	0.002297493257
580	31517	1.028760282036	0.000762643089
591	51080	1.049058117296	0.001287876821
591	60343	1.058932599779	0.009874482483
591	65374	1.064620599779	0.005688
591	89269	1.089944774967	0.025324175188
591	95877	1.100295282584	0.010350507617
591	104548	1.111721822867	0.011426540283
591	140682	1.15974112546	0.048019302593
591	159847	1.185616774967	0.025875649507
602	66714	1.065850601387	0.002115977503
602	72344	1.070522194003	0.004671592616
602	97684	1.102759592544	0.032237398541
602	104578	1.111721823703	0.008962231159
613	31421	1.028760277501	0.000762632027
613	72322	1.070522190443	0.041761912942
613	104419	1.111721816044	0.041199625601
624	58037	1.056387716182	0.021103000262
624	66708	1.065850601058	0.009462884876
624	91559	1.093183299755	0.027332698697
624	102135	1.108766599445	0.01558329969
624	104575	1.11172182366	0.002955224215
635	27956	1.023573800708	0.001603733156
635	31445	1.028760279056	0.005186478348
635	60406	1.058932603776	0.03017232472
635	104437	1.111721817587	0.052789213811
635	174890	1.208690067552	0.096968249965
646	78537	1.076946767821	0.013212147442
646	104611	1.111721825357	0.034775057536
646	114797	1.123699150847	0.01197732549
657	72314	1.07052218925	0.006787569865
657	78519	1.076946766517	0.006424577267
657	104608	1.11172182514	0.034775058623
657	114794	1.123699150818	0.011977325678
668	70009	1.068498322716	0.006080888234
668	104617	1.111721825693	0.043223502977
668	111235	1.11955729866	0.007835472967
668	140862	1.159741138198	0.040183839538
668	170136	1.201988030551	0.042246892353
668	188967	1.231992961459	0.030004930908
679	35491	1.032919865447	0.001106472289
679	36534	1.033890354131	0.000970488684
679	70955	1.069273116531	0.0353827624
679	84448	1.082882505251	0.01360938872
679	104689	1.111721829519	0.028839324268
679	140780	1.159741131829	0.04801930231
679	159913	1.18561678193	0.025875650101
690	31349	1.028760270757	0.004174705605
690	87130	1.08662693381	0.057866663053
690	102123	1.108766598849	0.022139665039
690	104626	1.111721825961	0.002955227112
701	49521	1.046737918177	0.009715734059
701	56814	1.054913258037	0.00817533986
701	104443	1.11172181815	0.056808560113
701	140810	1.15974113435	0.0480193162
712	27989	1.023573803604	0.00160373157
712	31427	1.028760277586	0.005186473982
712	35394	1.032919858786	0.0041595812
712	60445	1.058932607332	0.026012748546
712	104416	1.111721815923	0.052789208591
712	140707	1.159741127242	0.048019311319
723	66757	1.065850605085	0.006484593006
723	104503	1.111721820644	0.045871215559
734	62081	1.061263491836	0.024241308547
734	104568	1.111721823534	0.050458331698
734	117752	1.128210371108	0.016488547574
734	140896	1.15974114283	0.031530771722
734	170180	1.201988036849	0.042246894019
745	31592	1.028760288161	0.000762643329
745	104491	1.111721819932	0.082961531771
745	140688	1.159741125593	0.048019305661
745	193118	1.237347399907	0.077606274314
756	35420	1.032919860444	0.001106469252
756	60355	1.058932600626	0.026012740182
756	65385	1.064620600626	0.005688
756	89266	1.089944774866	0.02532417424
756	104602	1.111721825003	0.021777050137
756	140710	1.159741127305	0.048019302302
756	159844	1.185616774866	0.025875647561
767	31616	1.028760289362	0.000762645608
767	104458	1.111721818505	0.082961529143
767	140735	1.159741129057	0.048019310552
767	193139	1.237347402933	0.077606273876
778	31529	1.028760283009	0.000762641135
778	35353	1.032919855881	0.004159572872
778	60379	1.058932601703	0.026012745822
778	104425	1.111721817124	0.052789215421
778	140664	1.159741122126	0.048019305002
789	31484	1.028760281084	0.00198394025
789	35423	1.032919860573	0.004159579489
789	60403	1.058932602955	0.026012742382
789	69516	1.068141377656	0.009208774701
789	104650	1.111721826975	0.043580449319
789	122876	1.134854535143	0.023132708168
789	140762	1.159741130411	0.024886595268
789	149192	1.169939330327	0.010198199916
800	92202	1.094960165341	0.031225542025
800	97692	1.102759594155	0.007799428814
800	104605	1.111721825007	0.008962230852
811	30850	1.02799764469	0.001221297609
811	31496	1.028760281456	0.000762636766
811	60352	1.058932600472	0.030172319016
811	104476	1.111721819194	0.052789218722
811	140655	1.159741121561	0.048019302367
822	46301	1.042954612219	0.007669900273
822	58064	1.056387719568	0.013433107349
822	79938	1.078075719568	0.021688
822	87139	1.086626935192	0.008551215624
822	91593	1.093183303864	0.006556368672
822	122929	1.134854541001	0.041671237137
833	36762	1.034142744639	0.006145098834
833	104440	1.111721817886	0.077579073247
833	140858	1.15974113759	0.048019319704
833	170144	1.201988032068	0.042246894478
844	31553	1.028760284418	0.001983937501
844	35362	1.032919856246	0.004159571828
844	60358	1.05893260097	0.026012744724
844	104569	1.111721823534	0.052789222564
844	140670	1.159741124841	0.048019301307
855	58028	1.056387713238	0.021102999222
855	66735	1.065850603866	0.009462890628
855	87147	1.086626935895	0.020776332029
855	89910	1.090979713238	0.004352777343
855	104632	1.111721826217	0.020742112979
855	219942	1.282115713238	0.170393887021
866	31574	1.02876028688	0.000762642004
866	60382	1.058932602169	0.030172315289
866	104497	1.111721820408	0.052789218239
866	140694	1.159741125733	0.048019305325
877	31469	1.02876028027	0.001983936501
877	35486	1.032919865295	0.004159585025
877	46309	1.042954612581	0.010034747286
877	58076	1.056387721891	0.01343310931
877	60456	1.058932608129	0.002544886238
877	104701	1.111721830243	0.052789222114
877	121888	1.133812468881	0.022090638638
877	122888	1.134854536504	0.001042067623
877	138833	1.157377674925	0.022523138421
877	140830	1.159741135264	0.002363460339
877	149204	1.169939332218	0.010198196954
888	28010	1.023573805583	0.001603734984
888	31388	1.028760274484	0.005186468901
888	35414	1.032919860185	0.004159585701
888	60422	1.058932605172	0.026012744987
888	104539	1.111721822363	0.052789217191
888	140756	1.159741130102	0.048019307739
888	149216	1.169939335832	0.01019820573
899	91574	1.093183302137	0.027332698612
899	97673	1.102759591599	0.009576289462
899	104635	1.111721826387	0.008962234788
899	152253	1.173950420503	0.062228594116
910	31532	1.028760283221	0.000762639442
910	35347	1.032919853959	0.004159570738
910	60370	1.058932601411	0.026012747452
910	104452	1.111721818368	0.052789216957
921	27983	1.023573802545	0.001603735184
921	31391	1.028760274789	0.005186472244
921	35383	1.032919858226	0.004159583437
921	60417	1.058932604478	0.026012746252
921	104449	1.111721818336	0.052789213858
932	30165	1.026597175446	0.000897022198
932	31589	1.028760287992	0.002163112546
932	48392	1.045681866018	0.016921578026
932	104407	1.111721815245	0.066039949227
943	28013	1.023573805628	0.001603734006
943	31385	1.028760274369	0.005186468741
943	35417	1.032919860339	0.00415958597
943	60433	1.058932606501	0.026012746162
943	104512	1.111721821612	0.052789215111
943	140759	1.159741130127	0.048019308515
954	30784	1.027997639025	0.002297487009
954	31565	1.028760285356	0.000762646331
954	56757	1.05491325123	0.026152965874
954	104383	1.111721812772	0.056808561542
954	193175	1.237347407741	0.125625594969
965	31541	1.028760283661	0.001983938492
965	35374	1.032919857091	0.00415957343
965	104563	1.111721823394	0.078801966303
965	140691	1.159741125632	0.048019302238
976	49531	1.046737919991	0.009715734336
976	104530	1.111721821938	0.064983901947
976	140874	1.159741139769	0.048019317831
976	170158	1.201988034375	0.042246894606
987	30151	1.02659717137	0.000897020911
987	30865	1.027997644942	0.001400473572
987	31535	1.028760283567	0.000762638625
987	72358	1.070522194919	0.041761911352
987	104395	1.111721813907	0.041199618988
998	27974	1.023573802296	0.00160373591
998	31406	1.028760276872	0.005186474576
998	32355	1.029518591313	0.000758314441
998	35368	1.032919856868	0.003401265555
998	60400	1.058932602951	0.026012746083
998	104428	1.111721817285	0.052789214334
1009	42295	1.039474485005	0.008598183351
1009	59646	1.058138485005	0.018664
1009	104506	1.111721820676	0.053583335671
1020	31568	1.028760286178	0.000762641022