file 45664 1350921162                                           
version 2
run DataCentricScenario_4-0-20121022-16:51:32-2252
attr configname DataCentricScenario_4
attr datetime 20121022-16:51:32
attr experiment DataCentricScenario_4
attr inifile DataCentric.ini
attr iterationvars ""
attr iterationvars2 $repetition=0
attr measurement ""
attr network DataCentricNet
attr processid 2252
attr repetition 0
attr replication #0
attr resultdir results
attr runnumber 0
attr seedset 0

vector 8  DataCentricNet.host[0].net  InterestInterDepartureTimesVector  ETV
vector 1377  DataCentricNet.dataCentricNetworkMan  helloPacketFrequency  ETV
vector 1382  DataCentricNet.dataCentricNetworkMan  reinforcementPacketFrequency  ETV
vector 1384  DataCentricNet.dataCentricNetworkMan  breakagePacketFrequency  ETV
vector 1361  DataCentricNet.host[123].net  InterestInterDepartureTimesVector  ETV
vector 360  DataCentricNet.host[32].net  InterestInterDepartureTimesVector  ETV
vector 261  DataCentricNet.host[23].net  InterestInterDepartureTimesVector  ETV
vector 1251  DataCentricNet.host[113].net  InterestInterDepartureTimesVector  ETV
vector 371  DataCentricNet.host[33].net  InterestInterDepartureTimesVector  ETV
vector 382  DataCentricNet.host[34].net  InterestInterDepartureTimesVector  ETV
vector 74  DataCentricNet.host[6].net  InterestInterDepartureTimesVector  ETV
vector 547  DataCentricNet.host[49].net  InterestInterDepartureTimesVector  ETV
vector 173  DataCentricNet.host[15].net  InterestInterDepartureTimesVector  ETV
vector 1185  DataCentricNet.host[107].net  InterestInterDepartureTimesVector  ETV
vector 1372  DataCentricNet.host[124].net  InterestInterDepartureTimesVector  ETV
vector 30  DataCentricNet.host[2].net  InterestInterDepartureTimesVector  ETV
vector 635  DataCentricNet.host[57].net  InterestInterDepartureTimesVector  ETV
vector 998  DataCentricNet.host[90].net  InterestInterDepartureTimesVector  ETV
vector 41  DataCentricNet.host[3].net  InterestInterDepartureTimesVector  ETV
vector 921  DataCentricNet.host[83].net  InterestInterDepartureTimesVector  ETV
vector 503  DataCentricNet.host[45].net  InterestInterDepartureTimesVector  ETV
vector 712  DataCentricNet.host[64].net  InterestInterDepartureTimesVector  ETV
vector 459  DataCentricNet.host[41].net  InterestInterDepartureTimesVector  ETV
vector 888  DataCentricNet.host[80].net  InterestInterDepartureTimesVector  ETV
vector 943  DataCentricNet.host[85].net  InterestInterDepartureTimesVector  ETV
vector 1240  DataCentricNet.host[112].net  InterestInterDepartureTimesVector  ETV
vector 19  DataCentricNet.host[1].net  InterestInterDepartureTimesVector  ETV
vector 118  DataCentricNet.host[10].net  InterestInterDepartureTimesVector  ETV
vector 987  DataCentricNet.host[89].net  InterestInterDepartureTimesVector  ETV
vector 932  DataCentricNet.host[84].net  InterestInterDepartureTimesVector  ETV
vector 558  DataCentricNet.host[50].net  InterestInterDepartureTimesVector  ETV
vector 85  DataCentricNet.host[7].net  InterestInterDepartureTimesVector  ETV
vector 426  DataCentricNet.host[38].net  InterestInterDepartureTimesVector  ETV
vector 580  DataCentricNet.host[52].net  InterestInterDepartureTimesVector  ETV
vector 954  DataCentricNet.host[86].net  InterestInterDepartureTimesVector  ETV
vector 1328  DataCentricNet.host[120].net  InterestInterDepartureTimesVector  ETV
vector 217  DataCentricNet.host[19].net  InterestInterDepartureTimesVector  ETV
vector 1163  DataCentricNet.host[105].net  InterestInterDepartureTimesVector  ETV
vector 448  DataCentricNet.host[40].net  InterestInterDepartureTimesVector  ETV
vector 305  DataCentricNet.host[27].net  InterestInterDepartureTimesVector  ETV
vector 811  DataCentricNet.host[73].net  InterestInterDepartureTimesVector  ETV
vector 294  DataCentricNet.host[26].net  InterestInterDepartureTimesVector  ETV
vector 690  DataCentricNet.host[62].net  InterestInterDepartureTimesVector  ETV
vector 162  DataCentricNet.host[14].net  InterestInterDepartureTimesVector  ETV
vector 1141  DataCentricNet.host[103].net  InterestInterDepartureTimesVector  ETV
vector 613  DataCentricNet.host[55].net  InterestInterDepartureTimesVector  ETV
vector 206  DataCentricNet.host[18].net  InterestInterDepartureTimesVector  ETV
vector 404  DataCentricNet.host[36].net  InterestInterDepartureTimesVector  ETV
vector 877  DataCentricNet.host[79].net  InterestInterDepartureTimesVector  ETV
vector 1064  DataCentricNet.host[96].net  InterestInterDepartureTimesVector  ETV
vector 327  DataCentricNet.host[29].net  InterestInterDepartureTimesVector  ETV
vector 789  DataCentricNet.host[71].net  InterestInterDepartureTimesVector  ETV
vector 1306  DataCentricNet.host[118].net  InterestInterDepartureTimesVector  ETV
vector 415  DataCentricNet.host[37].net  InterestInterDepartureTimesVector  ETV
vector 239  DataCentricNet.host[21].net  InterestInterDepartureTimesVector  ETV
vector 1284  DataCentricNet.host[116].net  InterestInterDepartureTimesVector  ETV
vector 778  DataCentricNet.host[70].net  InterestInterDepartureTimesVector  ETV
vector 910  DataCentricNet.host[82].net  InterestInterDepartureTimesVector  ETV
vector 525  DataCentricNet.host[47].net  InterestInterDepartureTimesVector  ETV
vector 965  DataCentricNet.host[87].net  InterestInterDepartureTimesVector  ETV
vector 96  DataCentricNet.host[8].net  InterestInterDepartureTimesVector  ETV
vector 1152  DataCentricNet.host[104].net  InterestInterDepartureTimesVector  ETV
vector 844  DataCentricNet.host[76].net  InterestInterDepartureTimesVector  ETV
vector 1020  DataCentricNet.host[92].net  InterestInterDepartureTimesVector  ETV
vector 1229  DataCentricNet.host[111].net  InterestInterDepartureTimesVector  ETV
vector 866  DataCentricNet.host[78].net  InterestInterDepartureTimesVector  ETV
vector 52  DataCentricNet.host[4].net  InterestInterDepartureTimesVector  ETV
vector 745  DataCentricNet.host[67].net  InterestInterDepartureTimesVector  ETV
vector 481  DataCentricNet.host[43].net  InterestInterDepartureTimesVector  ETV
vector 1086  DataCentricNet.host[98].net  InterestInterDepartureTimesVector  ETV
vector 1295  DataCentricNet.host[117].net  InterestInterDepartureTimesVector  ETV
vector 437  DataCentricNet.host[39].net  InterestInterDepartureTimesVector  ETV
vector 767  DataCentricNet.host[69].net  InterestInterDepartureTimesVector  ETV
vector 1262  DataCentricNet.host[114].net  InterestInterDepartureTimesVector  ETV
vector 756  DataCentricNet.host[68].net  InterestInterDepartureTimesVector  ETV
vector 140  DataCentricNet.host[12].net  InterestInterDepartureTimesVector  ETV
vector 679  DataCentricNet.host[61].net  InterestInterDepartureTimesVector  ETV
vector 569  DataCentricNet.host[51].net  InterestInterDepartureTimesVector  ETV
vector 393  DataCentricNet.host[35].net  InterestInterDepartureTimesVector  ETV
vector 833  DataCentricNet.host[75].net  InterestInterDepartureTimesVector  ETV
vector 1053  DataCentricNet.host[95].net  InterestInterDepartureTimesVector  ETV
vector 1339  DataCentricNet.host[121].net  InterestInterDepartureTimesVector  ETV
vector 1009  DataCentricNet.host[91].net  InterestInterDepartureTimesVector  ETV
vector 184  DataCentricNet.host[16].net  InterestInterDepartureTimesVector  ETV
vector 1218  DataCentricNet.host[110].net  InterestInterDepartureTimesVector  ETV
vector 151  DataCentricNet.host[13].net  InterestInterDepartureTimesVector  ETV
vector 822  DataCentricNet.host[74].net  InterestInterDepartureTimesVector  ETV
vector 107  DataCentricNet.host[9].net  InterestInterDepartureTimesVector  ETV
vector 536  DataCentricNet.host[48].net  InterestInterDepartureTimesVector  ETV
vector 701  DataCentricNet.host[63].net  InterestInterDepartureTimesVector  ETV
vector 976  DataCentricNet.host[88].net  InterestInterDepartureTimesVector  ETV
vector 272  DataCentricNet.host[24].net  InterestInterDepartureTimesVector  ETV
vector 338  DataCentricNet.host[30].net  InterestInterDepartureTimesVector  ETV
vector 591  DataCentricNet.host[53].net  InterestInterDepartureTimesVector  ETV
vector 1196  DataCentricNet.host[108].net  InterestInterDepartureTimesVector  ETV
vector 228  DataCentricNet.host[20].net  InterestInterDepartureTimesVector  ETV
vector 1317  DataCentricNet.host[119].net  InterestInterDepartureTimesVector  ETV
vector 855  DataCentricNet.host[77].net  InterestInterDepartureTimesVector  ETV
vector 624  DataCentricNet.host[56].net  InterestInterDepartureTimesVector  ETV
vector 195  DataCentricNet.host[17].net  InterestInterDepartureTimesVector  ETV
vector 1130  DataCentricNet.host[102].net  InterestInterDepartureTimesVector  ETV
vector 250  DataCentricNet.host[22].net  InterestInterDepartureTimesVector  ETV
vector 1075  DataCentricNet.host[97].net  InterestInterDepartureTimesVector  ETV
vector 1042  DataCentricNet.host[94].net  InterestInterDepartureTimesVector  ETV
vector 1119  DataCentricNet.host[101].net  InterestInterDepartureTimesVector  ETV
vector 734  DataCentricNet.host[66].net  InterestInterDepartureTimesVector  ETV
vector 316  DataCentricNet.host[28].net  InterestInterDepartureTimesVector  ETV
vector 349  DataCentricNet.host[31].net  InterestInterDepartureTimesVector  ETV
vector 602  DataCentricNet.host[54].net  InterestInterDepartureTimesVector  ETV
vector 1207  DataCentricNet.host[109].net  InterestInterDepartureTimesVector  ETV
vector 1031  DataCentricNet.host[93].net  InterestInterDepartureTimesVector  ETV
vector 470  DataCentricNet.host[42].net  InterestInterDepartureTimesVector  ETV
vector 723  DataCentricNet.host[65].net  InterestInterDepartureTimesVector  ETV
vector 668  DataCentricNet.host[60].net  InterestInterDepartureTimesVector  ETV
vector 492  DataCentricNet.host[44].net  InterestInterDepartureTimesVector  ETV
vector 657  DataCentricNet.host[59].net  InterestInterDepartureTimesVector  ETV
vector 63  DataCentricNet.host[5].net  InterestInterDepartureTimesVector  ETV
vector 646  DataCentricNet.host[58].net  InterestInterDepartureTimesVector  ETV
vector 1174  DataCentricNet.host[106].net  InterestInterDepartureTimesVector  ETV
vector 514  DataCentricNet.host[46].net  InterestInterDepartureTimesVector  ETV
vector 1350  DataCentricNet.host[122].net  InterestInterDepartureTimesVector  ETV
vector 899  DataCentricNet.host[81].net  InterestInterDepartureTimesVector  ETV
vector 1097  DataCentricNet.host[99].net  InterestInterDepartureTimesVector  ETV
vector 129  DataCentricNet.host[11].net  InterestInterDepartureTimesVector  ETV
vector 283  DataCentricNet.host[25].net  InterestInterDepartureTimesVector  ETV
vector 800  DataCentricNet.host[72].net  InterestInterDepartureTimesVector  ETV
vector 1273  DataCentricNet.host[115].net  InterestInterDepartureTimesVector  ETV
vector 1108  DataCentricNet.host[100].net  InterestInterDepartureTimesVector  ETV
vector 1391  DataCentricNet.dataCentricNetworkMan  demandVector  ETV
vector 1383  DataCentricNet.dataCentricNetworkMan  dataPacketE2EDelay  ETV
8	10988 429 1148 104434 1.002310208689 1.111721817568 11 0.000758316802 0.052789213102 0.111721817568 0.0037851157210871
19	11417 324 28076 149201 1.023573809925 1.169939331704 8 0.001603736255 0.052789223982 0.147969258034 0.004768606600315
30	11741 119 27953 104551 1.023573800444 1.11172182297 3 0.00160372604 0.055334105945 0.089751748566 0.0041411883393287
41	11860 240 27977 104470 1.023573802504 1.111721818886 6 0.000758317269 0.052789212742 0.089751750152 0.0035049790760341
52	12100 162 31586 193127 1.028760287764 1.237347402009 4 0.000762644717 0.082961530541 0.209349758962 0.015211785002084
63	12262 161 78528 114805 1.07694676718 1.123699152431 4 0.002294113227 0.034775059553 0.059964531483 0.0014828931342273
74	12423 203 27923 193160 1.023573798395 1.237347406551 5 0.001603727482 0.096968256778 0.215377335638 0.017136173211348
85	12626 280 30274 140704 1.026776342932 1.159741126916 7 0.00198393745 0.052789222178 0.135155555763 0.0054580508697903
96	12906 202 31547 193121 1.028760283941 1.237347400431 5 0.000762640384 0.077606274921 0.209349756874 0.012026239575322
107	13108 249 48134 166777 1.045441553379 1.197001731382 6 0.001070327739 0.051321275659 0.152630505742 0.006457343400385
118	13357 164 30141 104410 1.026597169915 1.111721815488 4 0.000897019517 0.041761910307 0.08602166509 0.0034469497483435
129	13521 82 91587 104557 1.093183303634 1.111721823064 2 0.015125735708 0.01853851943 0.033664255138 0.00057246458336475
140	13603 247 35481 159904 1.032919865145 1.18561678067 6 0.001106471339 0.049962640754 0.153803386864 0.0059970079596243
151	13850 282 46295 122925 1.042954611846 1.134854540767 7 0.005158634977 0.041671235996 0.099569827252 0.0024768762780412
162	14132 372 31373 149225 1.028760273514 1.169939337646 9 0.001983926697 0.048019308952 0.143162990829 0.0042044692310864
173	14504 165 27929 104509 1.023573798766 1.111721821326 4 0.001603727514 0.055334101913 0.089751750074 0.0038546102704424
184	14669 156 42304 104464 1.039474485419 1.11172181857 4 0.0085981832 0.041199628712 0.080845516351 0.0022730391919799
195	14825 288 59442 140746 1.058027941183 1.159741129487 7 0.002116104417 0.048019306494 0.103829292721 0.0037571786090707
206	15113 450 31436 149213 1.028760278664 1.169939334783 11 0.001983933057 0.027694315651 0.143162989176 0.0027513830417265
217	15563 165 30817 104392 1.027997643524 1.111721813784 4 0.000762643971 0.056808560123 0.086021661055 0.0039170502323081
228	15728 167 56826 193195 1.054913258558 1.237347408958 4 0.017891075787 0.077606274134 0.200325226187 0.011875891624364
239	15895 246 31514 140667 1.028760281901 1.159741123763 6 0.001983934225 0.05278921781 0.132964776087 0.0054717419492974
250	16141 248 61147 140766 1.060195731145 1.159741130817 6 0.003447999999 0.04018383405 0.114299574586 0.0035136525409944
261	16389 165 27878 104371 1.023573794977 1.111721811321 4 0.001603721274 0.041761917564 0.089751737618 0.003470937695733
272	16554 206 50354 140698 1.047770242968 1.159741126469 5 0.00128787614 0.048019304844 0.114299569783 0.0044573130967227
283	16760 124 91590 104641 1.093183303856 1.111721826629 3 0.008962235467 0.016236536966 0.034775059739 0.00043565207578129
294	16884 248 30856 140658 1.027997644765 1.159741121779 6 0.000762636613 0.052789217555 0.132964774237 0.0057885932478523
305	17132 290 30844 140676 1.027997644252 1.159741125054 7 0.000762638056 0.052789220373 0.132964777358 0.0056824535887026
316	17422 165 64528 140777 1.063643731843 1.15974113182 4 0.009002566413 0.048019305748 0.114299578435 0.0042451161012563
327	17587 372 31481 149195 1.028760280948 1.169939331166 9 0.001983937974 0.052789222999 0.143162988192 0.0043540293405376
338	17959 165 50366 140726 1.047770243485 1.159741128472 4 0.00128787706 0.062663702843 0.114299575541 0.006239674741764
349	18124 166 66480 193178 1.065763299542 1.23734740776 4 0.028741112908 0.077606273847 0.200325221126 0.011266825415604
360	18290 164 27866 104374 1.023573793738 1.111721811623 4 0.00160372125 0.041761917345 0.089751739135 0.0034709377272403
371	18454 123 27899 104359 1.02357379667 1.111721809577 3 0.001603722097 0.082961530725 0.089751735004 0.0069120871022237
382	18577 166 27902 174895 1.023573797076 1.208690068812 4 0.001603728264 0.096968250279 0.18672 0.016314930584089
393	18743 204 35531 140827 1.03291986834 1.159741135086 5 0.000970482377 0.076858628933 0.127927741026 0.0073465706212392
404	18947 124 31451 104380 1.028760279209 1.111721812597 3 0.003060132459 0.041761913329 0.086021665847 0.0034508305085715
415	19071 494 31502 149198 1.02876028183 1.169939331585 12 0.001983938006 0.038181547745 0.143162987761 0.0030326424130566
426	19565 123 30775 104368 1.027997638785 1.111721810817 3 0.000762645905 0.082961526127 0.086021660607 0.0068884748998496
437	19688 167 31610 193136 1.028760289165 1.237347402588 4 0.000762645381 0.082961529228 0.209349758804 0.015211784927902
448	19855 165 30826 140835 1.027997643699 1.159741135863 4 0.000762645495 0.082961523886 0.134040983145 0.0091943298989841
459	20020 204 27992 104494 1.023573804241 1.111721820385 5 0.001603733812 0.05278921399 0.089751749956 0.003510137672704
470	20224 123 66752 104467 1.065850604854 1.111721818803 3 0.004671582421 0.041199631528 0.052355806679 0.0017612832632331
481	20347 249 31598 140750 1.028760288409 1.159741129743 6 0.001983940637 0.052789226443 0.132964781971 0.0046390678618782
492	20596 244 70952 214865 1.06927311583 1.273880115487 6 0.0158688032 0.074599216893 0.236712001746 0.011248422291593
503	20840 205 27986 104599 1.023573802605 1.111721824852 5 0.00160372881 0.030239219311 0.089751751057 0.0023369110871059
514	21045 290 88256 265812 1.08815658379 1.364589504993 7 0.006803577994 0.13346341912 0.286531942738 0.027572981192854
525	21335 288 31538 140713 1.028760283636 1.159741127537 7 0.001983939294 0.052789224497 0.132964783195 0.0043018628169023
536	21623 288 48176 170116 1.045441556555 1.201988027504 7 0.001070326519 0.062535988113 0.157616797468 0.0065611992355172
547	21911 164 27926 104431 1.023573798406 1.111721817372 4 0.001603724212 0.041761923319 0.089751743178 0.0034709385406231
558	22075 164 30169 104404 1.02659717656 1.111721814676 4 0.000762642561 0.082961526398 0.086021661607 0.006885962450965
569	22239 206 35524 140820 1.032919868016 1.159741134829 5 0.000970484531 0.076858628437 0.12792774053 0.0073465704046855
580	22445 82 30781 31517 1.027997638947 1.028760282036 2 0.000762643089 0.002297493257 0.003060136346 5.8600997471599e-006
591	22527 324 51080 159847 1.049058117296 1.185616774967 8 0.001287876821 0.048019302593 0.137846534492 0.0039859327136615
602	22851 165 66714 104578 1.065850601387 1.111721823703 4 0.002115977503 0.032237398541 0.047987199819 0.0011458725904017
613	23016 124 31421 104419 1.028760277501 1.111721816044 3 0.000762632027 0.041761912942 0.08372417057 0.0034420481298464
624	23140 205 58037 104575 1.056387716182 1.11172182366 5 0.002955224215 0.027332698697 0.07643710774 0.0015335318076847
635	23345 206 27956 174890 1.023573800708 1.208690067552 5 0.001603733156 0.096968249965 0.18672 0.013129383292757
646	23551 124 78537 114797 1.076946767821 1.123699150847 3 0.01197732549 0.034775057536 0.059964530468 0.0015273217925547
657	23675 164 72314 114794 1.07052218925 1.123699150818 4 0.006424577267 0.034775058623 0.059964531433 0.0014401073303619
668	23839 250 70009 188967 1.068498322716 1.231992961459 6 0.006080888234 0.043223502977 0.169575526977 0.0062664798002293
679	24089 285 35491 159913 1.032919865447 1.18561678193 7 0.000970488684 0.04801930231 0.153803388772 0.0052464307523224
690	24374 165 31349 104626 1.028760270757 1.111721825961 4 0.002955227112 0.057866663053 0.087136260809 0.0038648769951005
701	24539 161 49521 140810 1.046737918177 1.15974113435 4 0.00817533986 0.056808560113 0.122718950232 0.0056942989005596
712	24700 245 27989 140707 1.023573803604 1.159741127242 6 0.00160373157 0.052789208591 0.137771055208 0.0058159914732065
723	24945 83 66757 104503 1.065850605085 1.111721820644 2 0.006484593006 0.045871215559 0.052355808565 0.0021462183633137
734	25028 208 62081 170180 1.061263491836 1.201988036849 5 0.016488547574 0.050458331698 0.16496585356 0.0061845460985538
745	25236 167 31592 193118 1.028760288161 1.237347399907 4 0.000762643329 0.082961531771 0.209349755075 0.015211784907702
756	25403 283 35420 159844 1.032919860444 1.185616774866 7 0.001106469252 0.048019302302 0.153803383674 0.0048011965138611
767	25686 167 31616 193139 1.028760289362 1.237347402933 4 0.000762645608 0.082961529143 0.209349759179 0.015211784876874
778	25853 207 31529 140664 1.028760283009 1.159741122126 5 0.000762641135 0.052789215421 0.131743480252 0.0057871015308181
789	26060 331 31484 149192 1.028760281084 1.169939330327 8 0.00198394025 0.043580449319 0.143162989493 0.0039404260737587
800	26391 124 92202 104605 1.094960165341 1.111721825007 3 0.007799428814 0.031225542025 0.047987201691 0.0011161871464242
811	26515 206 30850 140655 1.02799764469 1.159741121561 5 0.000762636766 0.052789218722 0.13296477448 0.0060049970305824
822	26721 241 46301 122929 1.042954612219 1.134854541001 6 0.006556368672 0.041671237137 0.099569829055 0.0025622463505869
833	26962 166 36762 170144 1.034142744639 1.201988032068 4 0.006145098834 0.077579073247 0.173990386263 0.010146930003413
844	27128 206 31553 140670 1.028760284418 1.159741124841 5 0.001983937501 0.052789222564 0.132964777924 0.0057904562508001
855	27334 248 58028 219942 1.056387713238 1.282115713238 6 0.004352777343 0.170393887021 0.246830999222 0.030449797503337
866	27582 165 31574 140694 1.02876028688 1.159741125733 4 0.000762642004 0.052789218239 0.131743480857 0.0060035054789054
877	27747 455 31469 149204 1.02876028027 1.169939332218 11 0.001042067623 0.052789222114 0.143162988449 0.0042015242983978
888	28202 289 28010 149216 1.023573805583 1.169939335832 7 0.001603734984 0.052789217191 0.147969265233 0.0059199952480054
899	28491 166 91574 152253 1.093183302137 1.173950420503 4 0.008962234788 0.062228594116 0.108099816978 0.0047915013113235
910	28657 165 31532 104452 1.028760283221 1.111721818368 4 0.000762639442 0.052789216957 0.083724174589 0.0034812481045777
921	28822 206 27983 104449 1.023573802545 1.111721818336 5 0.001603735184 0.052789213858 0.089751750975 0.0035101376625641
932	29028 165 30165 104407 1.026597175446 1.111721815245 4 0.000897022198 0.066039949227 0.086021661997 0.0046530984015051
943	29193 247 28013 140759 1.023573805628 1.159741130127 6 0.001603734006 0.052789215111 0.137771058505 0.005815991761388
954	29440 206 30784 193175 1.027997639025 1.237347407741 5 0.000762646331 0.125625594969 0.211647255725 0.019698840475776
965	29646 165 31541 140691 1.028760283661 1.159741125632 4 0.001983938492 0.078801966303 0.132964780463 0.0085368413437031
976	29811 167 49531 170158 1.046737919991 1.201988034375 4 0.009715734336 0.064983901947 0.16496584872 0.0084079579947501
987	29978 205 30151 104395 1.02659717137 1.111721813907 5 0.000762638625 0.041761911352 0.086021663448 0.0034448134349417
998	30183 246 27974 104428 1.023573802296 1.111721817285 6 0.000758314441 0.052789214334 0.089751750899 0.0035049792443432
1009	30429 121 42295 104506 1.039474485005 1.111721820676 3 0.008598183351 0.053583335671 0.080845519022 0.0032934475145685
1020	30550 210 31568 140661 1.028760286178 1.1597411221 5 0.000762641022 0.052789217314 0.131743476944 0.0057871014544609
1031	30760 125 66742 104545 1.065850604121 1.111721822575 3 0.0021159856 0.041199634059 0.047987204054 0.0017237109424145
1042	30885 340 61174 170119 1.060195733005 1.201988027735 8 0.003447999999 0.042246893549 0.146076188629 0.0047668616775737
1053	31225 424 39912 179246 1.037133870162 1.216022458518 10 0.001849154243 0.048227608311 0.180737742599 0.0058367090728423
1064	31649 252 31472 140716 1.028760280336 1.159741127631 6 0.00198393939 0.05278922416 0.132964786685 0.0046390678510384
1075	31901 255 61171 140790 1.060195732709 1.159741133129 6 0.003447999999 0.040183836777 0.103829298082 0.003314318789464
1086	32156 253 31601 140738 1.028760288477 1.159741129067 6 0.001983940497 0.052789226627 0.132964781087 0.0055012427296929
1097	32409 124 91582 104680 1.093183302976 1.11172182886 3 0.00896223693 0.021212536258 0.039751062142 0.00062199869541692
1108	32533 170 104614 123643 1.11172182545 1.136075373729 4 0.002294120178 0.05235581337 0.076709361649 0.0029933295286752
1119	32703 170 62070 170171 1.06126349067 1.201988035913 4 0.024241307832 0.050458331127 0.164965853075 0.0072243393366785
1130	32873 212 61120 140732 1.060195729378 1.159741128947 5 0.003447999999 0.048019306719 0.114299574522 0.0041433712232298
1141	33085 294 31382 104686 1.028760274177 1.111721829224 7 0.001983926611 0.027694320667 0.084945481658 0.0015459784253949
1152	33379 212 31550 140673 1.028760284406 1.159741124872 5 0.001983938435 0.052789224741 0.132964778901 0.0057904563633324
1163	33591 169 30823 140844 1.027997643637 1.159741136546 4 0.000762643834 0.082961524355 0.134040985696 0.0091943301685939
1174	33760 255 79739 167283 1.078057560113 1.197660824001 6 0.002294115443 0.073961670244 0.133926200694 0.0064318138209965
1185	34015 126 27932 104362 1.023573799031 1.111721810252 3 0.001603726575 0.082961528671 0.089751737796 0.006912086779598
1196	34141 209 52196 140801 1.050072111496 1.159741134067 5 0.002423968962 0.050223178509 0.115369902411 0.0049476431863924
1207	34350 166 66738 104623 1.065850603978 1.111721825716 4 0.001409648762 0.041199631636 0.047987201576 0.0017145143885547
1218	34516 166 43787 140753 1.04097055474 1.159741129905 4 0.00127890785 0.063951585817 0.120049483015 0.0064435301237237
1229	34682 247 31571 140701 1.028760286519 1.15974112655 6 0.001983938886 0.048019301808 0.132964778917 0.0052546329124039
1240	34929 294 28019 104581 1.023573806282 1.111721823799 7 0.001603731829 0.027694322336 0.089751749346 0.002000719163236
1251	35223 127 27893 104365 1.023573796146 1.111721810595 3 0.001603724478 0.082961531011 0.089751738927 0.0069120871703431
1262	35350 254 34829 140870 1.032137868934 1.159741139085 6 0.001056045009 0.064983901721 0.128864842626 0.0066686406219879
1273	35604 171 104593 171294 1.11172182467 1.203749915034 4 0.001761879749 0.069756917985 0.161785008349 0.0089597866437017
1284	35775 252 31523 140679 1.028760282431 1.159741125285 6 0.0019839355 0.052789219594 0.132964778354 0.0046448946261505
1295	36027 210 31604 140741 1.028760288505 1.159741129124 5 0.001983940593 0.05278922767 0.132964781212 0.0057904565050039
1306	36237 296 31487 140784 1.028760281114 1.159741132294 7 0.001983940271 0.043580451134 0.132964791451 0.0038364229352256
1317	36533 374 57530 214802 1.05591184057 1.273880110009 9 0.001155890521 0.071892085183 0.222422490688 0.011386549124917
1328	36907 127 30799 104389 1.027997642027 1.111721813122 3 0.000762641742 0.082961529353 0.086021662153 0.0068884754401769
1339	37034 212 42253 134628 1.039474481445 1.150874473575 5 0.003225222922 0.053583335621 0.119998176222 0.0047267910382252
1350	37246 253 88259 181698 1.088156585336 1.219492498552 6 0.002294119492 0.083417125001 0.14143493442 0.0078679259209911
1361	37499 127 27845 104401 1.023573791703 1.111721814246 3 0.001603718597 0.082961535944 0.08975174114 0.0069120880027676
1372	37626 169 27947 104587 1.023573800203 1.111721823902 4 0.001603725565 0.055334105778 0.089751749264 0.0038546106956479
1377	37795 1732 5690 2605901 1.005 17403.005 70 0 125 125 15625
1382	39527 1730 5690 2605901 1.005 17403.005 70 0 3 5 11
1383	41257 830 307481 2605918 3.002559977899 17403.005069751832 18 0.002559977899 0.017758878099 0.133628310635 0.0012071102712135
1384	42087 1730 5690 2605901 1.005 17403.005 70 0 0 0 0
1391	43817 1847 307191 3197051 3 21903 81 0 9000 189000 873000000
