version 2
run DataCentricScenario_1-0-20121010-15:00:06-3852
attr configname DataCentricScenario_1
attr datetime 20121010-15:00:06
attr experiment DataCentricScenario_1
attr inifile DataCentric.ini
attr iterationvars ""
attr iterationvars2 $repetition=0
attr measurement ""
attr network DataCentricNet
attr processid 3852
attr repetition 0
attr replication #0
attr resultdir results
attr runnumber 0
attr seedset 0

vector 97  DataCentricNet.host[8].net  AdvertInterDepartureTimesVector  ETV
vector 9  DataCentricNet.host[0].net  AdvertInterDepartureTimesVector  ETV
vector 53  DataCentricNet.host[4].net  AdvertInterDepartureTimesVector  ETV
vector 1377  DataCentricNet.dataCentricNetworkMan  helloPacketFrequency  ETV
vector 1382  DataCentricNet.dataCentricNetworkMan  reinforcementPacketFrequency  ETV
vector 1384  DataCentricNet.dataCentricNetworkMan  breakagePacketFrequency  ETV
vector 64  DataCentricNet.host[5].net  AdvertInterDepartureTimesVector  ETV
vector 647  DataCentricNet.host[58].net  AdvertInterDepartureTimesVector  ETV
vector 1175  DataCentricNet.host[106].net  AdvertInterDepartureTimesVector  ETV
vector 1109  DataCentricNet.host[100].net  AdvertInterDepartureTimesVector  ETV
vector 515  DataCentricNet.host[46].net  AdvertInterDepartureTimesVector  ETV
vector 1351  DataCentricNet.host[122].net  AdvertInterDepartureTimesVector  ETV
vector 658  DataCentricNet.host[59].net  AdvertInterDepartureTimesVector  ETV
vector 504  DataCentricNet.host[45].net  AdvertInterDepartureTimesVector  ETV
vector 1098  DataCentricNet.host[99].net  AdvertInterDepartureTimesVector  ETV
vector 284  DataCentricNet.host[25].net  AdvertInterDepartureTimesVector  ETV
vector 1010  DataCentricNet.host[91].net  AdvertInterDepartureTimesVector  ETV
vector 614  DataCentricNet.host[55].net  AdvertInterDepartureTimesVector  ETV
vector 185  DataCentricNet.host[16].net  AdvertInterDepartureTimesVector  ETV
vector 174  DataCentricNet.host[15].net  AdvertInterDepartureTimesVector  ETV
vector 130  DataCentricNet.host[11].net  AdvertInterDepartureTimesVector  ETV
vector 1032  DataCentricNet.host[93].net  AdvertInterDepartureTimesVector  ETV
vector 724  DataCentricNet.host[65].net  AdvertInterDepartureTimesVector  ETV
vector 471  DataCentricNet.host[42].net  AdvertInterDepartureTimesVector  ETV
vector 801  DataCentricNet.host[72].net  AdvertInterDepartureTimesVector  ETV
vector 988  DataCentricNet.host[89].net  AdvertInterDepartureTimesVector  ETV
vector 405  DataCentricNet.host[36].net  AdvertInterDepartureTimesVector  ETV
vector 119  DataCentricNet.host[10].net  AdvertInterDepartureTimesVector  ETV
vector 262  DataCentricNet.host[23].net  AdvertInterDepartureTimesVector  ETV
vector 361  DataCentricNet.host[32].net  AdvertInterDepartureTimesVector  ETV
vector 1362  DataCentricNet.host[123].net  AdvertInterDepartureTimesVector  ETV
vector 548  DataCentricNet.host[49].net  AdvertInterDepartureTimesVector  ETV
vector 603  DataCentricNet.host[54].net  AdvertInterDepartureTimesVector  ETV
vector 1208  DataCentricNet.host[109].net  AdvertInterDepartureTimesVector  ETV
vector 42  DataCentricNet.host[3].net  AdvertInterDepartureTimesVector  ETV
vector 713  DataCentricNet.host[64].net  AdvertInterDepartureTimesVector  ETV
vector 999  DataCentricNet.host[90].net  AdvertInterDepartureTimesVector  ETV
vector 922  DataCentricNet.host[83].net  AdvertInterDepartureTimesVector  ETV
vector 636  DataCentricNet.host[57].net  AdvertInterDepartureTimesVector  ETV
vector 460  DataCentricNet.host[41].net  AdvertInterDepartureTimesVector  ETV
vector 944  DataCentricNet.host[85].net  AdvertInterDepartureTimesVector  ETV
vector 889  DataCentricNet.host[80].net  AdvertInterDepartureTimesVector  ETV
vector 1241  DataCentricNet.host[112].net  AdvertInterDepartureTimesVector  ETV
vector 86  DataCentricNet.host[7].net  AdvertInterDepartureTimesVector  ETV
vector 1065  DataCentricNet.host[96].net  AdvertInterDepartureTimesVector  ETV
vector 163  DataCentricNet.host[14].net  AdvertInterDepartureTimesVector  ETV
vector 20  DataCentricNet.host[1].net  AdvertInterDepartureTimesVector  ETV
vector 790  DataCentricNet.host[71].net  AdvertInterDepartureTimesVector  ETV
vector 1307  DataCentricNet.host[118].net  AdvertInterDepartureTimesVector  ETV
vector 878  DataCentricNet.host[79].net  AdvertInterDepartureTimesVector  ETV
vector 812  DataCentricNet.host[73].net  AdvertInterDepartureTimesVector  ETV
vector 295  DataCentricNet.host[26].net  AdvertInterDepartureTimesVector  ETV
vector 1021  DataCentricNet.host[92].net  AdvertInterDepartureTimesVector  ETV
vector 779  DataCentricNet.host[70].net  AdvertInterDepartureTimesVector  ETV
vector 240  DataCentricNet.host[21].net  AdvertInterDepartureTimesVector  ETV
vector 845  DataCentricNet.host[76].net  AdvertInterDepartureTimesVector  ETV
vector 1153  DataCentricNet.host[104].net  AdvertInterDepartureTimesVector  ETV
vector 306  DataCentricNet.host[27].net  AdvertInterDepartureTimesVector  ETV
vector 1285  DataCentricNet.host[116].net  AdvertInterDepartureTimesVector  ETV
vector 592  DataCentricNet.host[53].net  AdvertInterDepartureTimesVector  ETV
vector 746  DataCentricNet.host[67].net  AdvertInterDepartureTimesVector  ETV
vector 966  DataCentricNet.host[87].net  AdvertInterDepartureTimesVector  ETV
vector 867  DataCentricNet.host[78].net  AdvertInterDepartureTimesVector  ETV
vector 273  DataCentricNet.host[24].net  AdvertInterDepartureTimesVector  ETV
vector 1230  DataCentricNet.host[111].net  AdvertInterDepartureTimesVector  ETV
vector 757  DataCentricNet.host[68].net  AdvertInterDepartureTimesVector  ETV
vector 1087  DataCentricNet.host[98].net  AdvertInterDepartureTimesVector  ETV
vector 1296  DataCentricNet.host[117].net  AdvertInterDepartureTimesVector  ETV
vector 196  DataCentricNet.host[17].net  AdvertInterDepartureTimesVector  ETV
vector 141  DataCentricNet.host[12].net  AdvertInterDepartureTimesVector  ETV
vector 680  DataCentricNet.host[61].net  AdvertInterDepartureTimesVector  ETV
vector 394  DataCentricNet.host[35].net  AdvertInterDepartureTimesVector  ETV
vector 526  DataCentricNet.host[47].net  AdvertInterDepartureTimesVector  ETV
vector 31  DataCentricNet.host[2].net  AdvertInterDepartureTimesVector  ETV
vector 691  DataCentricNet.host[62].net  AdvertInterDepartureTimesVector  ETV
vector 1373  DataCentricNet.host[124].net  AdvertInterDepartureTimesVector  ETV
vector 625  DataCentricNet.host[56].net  AdvertInterDepartureTimesVector  ETV
vector 482  DataCentricNet.host[43].net  AdvertInterDepartureTimesVector  ETV
vector 1340  DataCentricNet.host[121].net  AdvertInterDepartureTimesVector  ETV
vector 1131  DataCentricNet.host[102].net  AdvertInterDepartureTimesVector  ETV
vector 339  DataCentricNet.host[30].net  AdvertInterDepartureTimesVector  ETV
vector 317  DataCentricNet.host[28].net  AdvertInterDepartureTimesVector  ETV
vector 1318  DataCentricNet.host[119].net  AdvertInterDepartureTimesVector  ETV
vector 493  DataCentricNet.host[44].net  AdvertInterDepartureTimesVector  ETV
vector 1197  DataCentricNet.host[108].net  AdvertInterDepartureTimesVector  ETV
vector 108  DataCentricNet.host[9].net  AdvertInterDepartureTimesVector  ETV
vector 911  DataCentricNet.host[82].net  AdvertInterDepartureTimesVector  ETV
vector 1219  DataCentricNet.host[110].net  AdvertInterDepartureTimesVector  ETV
vector 570  DataCentricNet.host[51].net  AdvertInterDepartureTimesVector  ETV
vector 537  DataCentricNet.host[48].net  AdvertInterDepartureTimesVector  ETV
vector 416  DataCentricNet.host[37].net  AdvertInterDepartureTimesVector  ETV
vector 856  DataCentricNet.host[77].net  AdvertInterDepartureTimesVector  ETV
vector 1142  DataCentricNet.host[103].net  AdvertInterDepartureTimesVector  ETV
vector 207  DataCentricNet.host[18].net  AdvertInterDepartureTimesVector  ETV
vector 251  DataCentricNet.host[22].net  AdvertInterDepartureTimesVector  ETV
vector 328  DataCentricNet.host[29].net  AdvertInterDepartureTimesVector  ETV
vector 1329  DataCentricNet.host[120].net  AdvertInterDepartureTimesVector  ETV
vector 372  DataCentricNet.host[33].net  AdvertInterDepartureTimesVector  ETV
vector 823  DataCentricNet.host[74].net  AdvertInterDepartureTimesVector  ETV
vector 152  DataCentricNet.host[13].net  AdvertInterDepartureTimesVector  ETV
vector 1054  DataCentricNet.host[95].net  AdvertInterDepartureTimesVector  ETV
vector 900  DataCentricNet.host[81].net  AdvertInterDepartureTimesVector  ETV
vector 768  DataCentricNet.host[69].net  AdvertInterDepartureTimesVector  ETV
vector 669  DataCentricNet.host[60].net  AdvertInterDepartureTimesVector  ETV
vector 977  DataCentricNet.host[88].net  AdvertInterDepartureTimesVector  ETV
vector 1120  DataCentricNet.host[101].net  AdvertInterDepartureTimesVector  ETV
vector 1274  DataCentricNet.host[115].net  AdvertInterDepartureTimesVector  ETV
vector 1252  DataCentricNet.host[113].net  AdvertInterDepartureTimesVector  ETV
vector 75  DataCentricNet.host[6].net  AdvertInterDepartureTimesVector  ETV
vector 1186  DataCentricNet.host[107].net  AdvertInterDepartureTimesVector  ETV
vector 955  DataCentricNet.host[86].net  AdvertInterDepartureTimesVector  ETV
vector 427  DataCentricNet.host[38].net  AdvertInterDepartureTimesVector  ETV
vector 834  DataCentricNet.host[75].net  AdvertInterDepartureTimesVector  ETV
vector 218  DataCentricNet.host[19].net  AdvertInterDepartureTimesVector  ETV
vector 438  DataCentricNet.host[39].net  AdvertInterDepartureTimesVector  ETV
vector 350  DataCentricNet.host[31].net  AdvertInterDepartureTimesVector  ETV
vector 229  DataCentricNet.host[20].net  AdvertInterDepartureTimesVector  ETV
vector 1043  DataCentricNet.host[94].net  AdvertInterDepartureTimesVector  ETV
vector 702  DataCentricNet.host[63].net  AdvertInterDepartureTimesVector  ETV
vector 1076  DataCentricNet.host[97].net  AdvertInterDepartureTimesVector  ETV
vector 1164  DataCentricNet.host[105].net  AdvertInterDepartureTimesVector  ETV
vector 559  DataCentricNet.host[50].net  AdvertInterDepartureTimesVector  ETV
vector 933  DataCentricNet.host[84].net  AdvertInterDepartureTimesVector  ETV
vector 735  DataCentricNet.host[66].net  AdvertInterDepartureTimesVector  ETV
vector 581  DataCentricNet.host[52].net  AdvertInterDepartureTimesVector  ETV
vector 1263  DataCentricNet.host[114].net  AdvertInterDepartureTimesVector  ETV
vector 449  DataCentricNet.host[40].net  AdvertInterDepartureTimesVector  ETV
9	1160	1.002284248447	0.002284248447
9	2896	1.004000175918	0.001715927471
9	32504	1.029640206801	0.025640030883
9	33528	1.030574210379	0.000934003578
9	69535	1.074865978225	0.044291767846
9	90356	1.103181167256	0.028315189031
9	96606	1.113132143104	0.009950975848
9	118000	1.142714582802	0.029582439698
20	33701	1.030574219565	0.002228145895
20	73964	1.079314256342	0.048740036777
20	102064	1.122632254014	0.043317997672
20	112514	1.135090196661	0.012457942647
31	44472	1.045187711725	0.008963979106
31	52239	1.053658352617	0.008470640892
31	90322	1.103181163718	0.049522811101
31	96651	1.113132149303	0.009950985585
31	112457	1.135090190211	0.021958040908
31	117982	1.142714579304	0.007624389093
31	138855	1.170442579304	0.027728
31	176533	1.226762682256	0.056320102952
42	32495	1.02964020502	0.014230136286
42	33533	1.030574210761	0.000934005741
42	69541	1.074865978482	0.044291767721
42	90342	1.103181165488	0.028315187006
42	112487	1.135090192762	0.031909027274
42	117994	1.142714582477	0.007624389715
42	176461	1.2267626742	0.084048091723
53	1217	1.00228425183	0.00228425183
53	19392	1.013186325382	0.010902073552
53	20389	1.014228163457	0.001041838075
53	24219	1.018191302684	0.003963139227
53	24992	1.018927659429	0.000736356745
53	27040	1.021445163918	0.002517504489
53	33640	1.030574216262	0.009129052344
53	39969	1.040045249175	0.009471032913
53	49169	1.050112874232	0.010067625057
53	69616	1.074865982562	0.02475310833
53	74017	1.079314260391	0.004448277829
53	106333	1.128256726026	0.048942465635
53	118179	1.142714594897	0.014457868871
64	6391	1.006043712728	0.006043712728
64	17223	1.011043452147	0.004999739419
64	18163	1.011943555485	0.000900103338
64	20844	1.014377733741	0.002434178256
64	29871	1.025805629754	0.011427896013
64	31517	1.028010393357	0.002204763603
64	38079	1.037109203717	0.00909881036
64	69683	1.074865985633	0.037756781916
64	112612	1.135090206806	0.060224221173
75	118071	1.142714588237	0.005085585267
75	119134	1.143882444942	0.001167856705
75	128561	1.155402819091	0.011520374149
86	33662	1.03057421744	0.00222814422
86	73914	1.079314251103	0.048740033663
86	102083	1.12263225534	0.043318004237
86	112529	1.135090197372	0.012457942032
86	131398	1.158807851798	0.023717654426
86	164030	1.207990965083	0.049183113285
97	1148	1.002284247565	0.002284247565
97	2043	1.0032464528	0.000962205235
97	27068	1.02144516897	0.01819871617
97	33622	1.03057421548	0.00912904651
97	38877	1.038294851322	0.007720635842
97	39923	1.040045245946	0.001750394624
97	49214	1.050112877753	0.010067631807
97	69605	1.074865982262	0.024753104509
97	73967	1.079314256505	0.004448274243
97	102130	1.122632258305	0.0433180018
97	118126	1.142714591078	0.020082332773
108	49181	1.050112875358	0.006161137914
108	57805	1.061567783196	0.011454907838
108	74047	1.079314262002	0.017746478806
119	28902	1.02448410871	0.001801515421
119	29774	1.025805619969	0.001321511259
119	34151	1.031966534781	0.006160914812
119	52050	1.053481149864	0.021514615083
119	58018	1.061710534779	0.008229384915
119	69499	1.07486597585	0.013155441071
119	73301	1.078478038479	0.003612062629
130	25268	1.018971300568	0.004593566878
130	29812	1.025805625868	0.0068343253
130	33576	1.030574213189	0.004768587321
130	69611	1.074865982397	0.044291769208
130	78640	1.085654356721	0.010788374324
130	90363	1.103181168117	0.017526811396
130	96622	1.113132146247	0.00995097813
130	104916	1.126057781444	0.012925635197
130	112541	1.13509019826	0.009032416816
130	117991	1.142714581598	0.007624383338
130	174165	1.222404728531	0.079690146933
130	271371	1.394852728531	0.172448
141	40012	1.040045251845	0.001750402068
141	49194	1.050112876375	0.01006762453
141	57784	1.061567781551	0.011454905176
141	69774	1.074865992183	0.013298210632
141	74035	1.079314261002	0.004448268819
141	76127	1.081518307501	0.002204046499
152	90301	1.10318116194	0.03762009719
152	102047	1.122632251139	0.019451089199
152	112478	1.135090192092	0.012457940953
152	120932	1.145802358941	0.010712166849
163	33678	1.030574218173	0.000934005226
163	52255	1.053658355239	0.023084137066
163	90289	1.103181159482	0.049522804243
163	112445	1.135090188059	0.031909028577
174	24514	1.018217727431	0.002807656179
174	25210	1.01897129428	0.000753566849
174	29828	1.025805626769	0.006834332489
174	33550	1.030574211458	0.004768584689
174	69570	1.074865980327	0.044291768869
174	75744	1.081172079553	0.006306099226
174	90319	1.103181163657	0.022009084104
174	96614	1.113132145362	0.009950981705
174	112481	1.135090192599	0.021958047237
185	24371	1.018191315565	0.00381358189
185	25312	1.018971305469	0.000779989904
185	29765	1.025805619391	0.006834313922
185	31455	1.028010388217	0.002204768826
185	48098	1.048662059254	0.020651671037
185	54148	1.056273181329	0.007611122075
185	68640	1.073990609513	0.017717428184
185	69550	1.074865978856	0.000875369343
185	75773	1.081172083337	0.006306104481
185	82723	1.091427720521	0.010255637184
185	90438	1.103181177127	0.011753456606
185	112599	1.135090205196	0.031909028069
196	39988	1.040045249923	0.0050202766
196	49124	1.050112869077	0.010067619154
196	69723	1.074865987295	0.024753118218
196	74011	1.079314260227	0.004448272932
207	52286	1.053658360019	0.017434628738
207	74024	1.079314260572	0.025655900553
207	90304	1.103181162067	0.023866901495
207	102059	1.122632253309	0.019451091242
207	112490	1.135090193013	0.012457939704
218	126635	1.15326056273	0.0038
218	143701	1.176280549546	0.023019986816
218	147911	1.182866098541	0.006585548995
218	203720	1.271206363958	0.088340265417
229	132239	1.160391210049	0.035396391065
240	39905	1.040045244199	0.005020271522
240	67823	1.072972748962	0.032927504763
240	69597	1.074865981941	0.001893232979
240	80366	1.087932748961	0.01306676702
240	83174	1.092372748961	0.00444
240	102111	1.122632257192	0.030259508231
240	118123	1.142714591019	0.020082333827
251	53601	1.055758128203	0.003113639885
251	57763	1.061567780023	0.00580965182
251	69696	1.074865986525	0.013298206502
251	74014	1.079314260384	0.004448273859
251	165929	1.210270201154	0.13095594077
262	28905	1.024484109416	0.001801514519
262	29768	1.025805619412	0.001321509996
262	69472	1.074865969625	0.049060350213
262	112551	1.135090200207	0.060224230582
262	118052	1.142714586332	0.007624386125
262	122721	1.148042707864	0.005328121532
273	39937	1.040045246905	0.0050202767
273	49145	1.050112871572	0.010067624667
273	69680	1.074865985512	0.02475311394
273	73985	1.079314257436	0.004448271924
284	22514	1.016197378156	0.001819644312
284	24561	1.01821773445	0.002020356294
284	25284	1.018971302323	0.000753567873
284	29281	1.024856020497	0.005884718174
284	29877	1.025805629934	0.000949609437
284	52270	1.053658358026	0.027852728092
284	75738	1.08117207771	0.027513719684
284	90360	1.103181168009	0.022009090299
284	96672	1.113132150506	0.009950982497
284	112538	1.135090198022	0.021958047516
284	118016	1.142714583553	0.007624385531
284	160006	1.201592020493	0.05887743694
284	174162	1.222404728273	0.02081270778
284	271368	1.394852728273	0.172448
295	39896	1.040045242215	0.005020271908
295	63093	1.067773242213	0.027727999998
295	69576	1.07486598069	0.007092738477
295	73902	1.079314248677	0.004448267987
295	80360	1.087932746685	0.008618498008
295	83168	1.092372746685	0.00444
295	102101	1.122632256495	0.03025950981
295	118105	1.142714589977	0.020082333482
306	39914	1.04004524549	0.005020280798
306	49232	1.05011287938	0.01006763389
306	69602	1.07486598223	0.02475310285
306	73945	1.079314255219	0.004448272989
306	102107	1.122632256676	0.043318001457
306	118099	1.142714589545	0.020082332869
317	49136	1.05011287041	0.003641130081
317	57769	1.061567780944	0.011454910534
317	69751	1.074865989889	0.013298208945
317	74027	1.079314260634	0.004448270745
328	74000	1.079314258721	0.04563343202
328	102087	1.122632255518	0.043317996797
328	112508	1.135090196036	0.012457940518
339	49130	1.050112870122	0.003641131174
339	57748	1.061567778897	0.011454908775
339	69713	1.07486598712	0.013298208223
339	73989	1.079314257805	0.004448270685
350	132233	1.1603912093	0.035396390297
361	28908	1.024484109563	0.001801514803
361	29733	1.025805617702	0.001321508139
361	33488	1.030574202894	0.004768585192
361	69478	1.074865971421	0.044291768527
361	118041	1.142714585614	0.067848614193
361	122712	1.148042706408	0.005328120794
372	88628	1.101134539487	0.069167999997
372	122741	1.14804270978	0.046908170293
372	197170	1.261414202648	0.113371492868
372	253186	1.358890709778	0.09747650713
372	285909	1.433146709777	0.074255999999
394	40072	1.040045255522	0.001750403909
394	49249	1.05011288029	0.010067624768
394	74053	1.079314262956	0.029201382666
405	28893	1.024484108427	0.001801515577
405	29744	1.025805618186	0.001321509759
405	31446	1.028010384769	0.002204766583
405	69481	1.074865972202	0.046855587433
405	73292	1.078478037964	0.003612065762
405	112583	1.135090203161	0.056612165197
416	50032	1.051234732179	0.017553905059
416	73997	1.07931425861	0.028079526431
416	102104	1.122632256509	0.043317997899
416	112518	1.135090196724	0.012457940215
416	184083	1.239171375105	0.104081178381
427	119137	1.143882445182	0.00625344202
427	132275	1.160391213447	0.016508768265
438	128536	1.155402815552	0.027146092197
438	132224	1.160391205972	0.00498839042
449	153297	1.190609852822	0.03256059887
449	161498	1.20420109382	0.013591240998
449	189882	1.248985232117	0.044784138297
449	203741	1.271206366102	0.022221133985
460	33566	1.0305742123	0.000934005892
460	90337	1.103181164937	0.072606952637
460	112469	1.135090191818	0.031909026881
460	118011	1.142714583526	0.007624391708
460	176467	1.226762675588	0.084048092062
471	25305	1.018971304844	0.004593569735
471	28033	1.022682587587	0.003711282743
471	29782	1.025805622648	0.003123035061
471	31452	1.02801038621	0.002204763562
471	47031	1.047731206402	0.019720820192
471	54145	1.056273181007	0.008541974605
471	64673	1.069531717474	0.013258536467
471	69523	1.074865977886	0.005334260412
471	90441	1.103181177278	0.028315199392
471	112588	1.135090203746	0.031909026468
482	46781	1.047728925136	0.009434079976
482	49274	1.050112883004	0.002383957868
482	73954	1.079314255646	0.029201372642
482	102169	1.122632263179	0.043318007533
493	49172	1.050112874983	0.006161134168
493	57817	1.061567784754	0.011454909771
493	74067	1.079314264161	0.017746479407
493	117194	1.141794831023	0.062480566862
504	22470	1.016197371922	0.000787298127
504	24503	1.018217725254	0.002020353332
504	25201	1.018971293951	0.000753568697
504	33612	1.030574214984	0.011602921033
504	90292	1.103181160047	0.072606945063
504	96644	1.113132148808	0.009950988761
504	112454	1.135090189742	0.021958040934
504	117985	1.142714579337	0.007624389595
515	6412	1.006043719434	0.00306073032
515	17243	1.011043455026	0.004999735592
515	18174	1.011943558287	0.000900103261
515	29874	1.02580562989	0.013862071603
515	30579	1.026849174108	0.001043544218
515	31546	1.028010397455	0.001161223347
515	38062	1.037109200254	0.009098802799
515	52337	1.053658367387	0.016549167133
515	69739	1.074865988212	0.021207620825
515	75778	1.081172083827	0.006306095615
515	90447	1.103181177702	0.022009093875
515	112618	1.135090207061	0.031909029359
526	41187	1.04137196179	0.003077113789
526	42178	1.042660909251	0.001288947461
526	49279	1.050112883187	0.007451973936
526	73920	1.079314252025	0.029201368838
526	102133	1.12263225855	0.043318006525
526	112554	1.135090200343	0.012457941793
526	131401	1.158807852471	0.023717652128
537	49255	1.050112880746	0.006161142321
537	73037	1.078455460866	0.02834258012
537	74071	1.07931426465	0.000858803784
537	84314	1.093960336709	0.014646072059
537	113368	1.136392002629	0.04243166592
537	148867	1.183897515657	0.047505513028
537	186973	1.243009515657	0.059112
537	248554	1.349470237676	0.106460722019
548	29809	1.025805625661	0.00312303009
548	33502	1.030574206974	0.004768581313
548	69493	1.074865975291	0.044291768317
548	90371	1.103181169715	0.028315194424
548	112499	1.135090194512	0.031909024797
548	118006	1.142714583418	0.007624388906
559	143734	1.17628055258	0.004475275904
559	166576	1.211494711989	0.035214159409
559	203750	1.271206366616	0.059711654627
559	215262	1.290379111704	0.019172745088
570	49243	1.050112880071	0.006161140688
570	72992	1.078455457511	0.02834257744
570	74043	1.079314261957	0.000858804446
570	110196	1.133144820738	0.053830558781
581	147887	1.182866096634	0.004210469345
581	215244	1.29037910923	0.107513012596
592	39920	1.040045245896	0.005020278501
592	49208	1.050112877016	0.01006763112
592	69688	1.074865985905	0.024753108889
592	73957	1.079314255834	0.004448269929
592	102154	1.122632261707	0.043318005873
592	118176	1.142714594699	0.020082332992
603	29887	1.025805630211	0.003123035896
603	52282	1.053658359143	0.027852728932
603	52780	1.054702034047	0.001043674904
603	69592	1.074865981564	0.020163947517
603	73267	1.078478034047	0.003612052483
603	82735	1.091427722417	0.01294968837
603	90374	1.103181169957	0.01175344754
603	112505	1.135090195131	0.031909025174
614	24359	1.018191313866	0.003813578623
614	25277	1.018971301983	0.000779988117
614	29750	1.025805618348	0.006834316365
614	31458	1.028010388249	0.002204769901
614	69505	1.074865975969	0.04685558772
614	73282	1.078478037039	0.00361206107
614	75762	1.081172082	0.002694044961
614	82732	1.091427722086	0.010255640086
614	90411	1.103181174421	0.011753452335
614	112566	1.135090202254	0.031909027833
625	44502	1.045187712537	0.008963979423
625	52243	1.053658353925	0.008470641388
625	56088	1.059152439401	0.005494085476
625	90330	1.103181164345	0.044028724944
625	96685	1.113132151179	0.009950986834
625	112451	1.135090189368	0.021958038189
625	117988	1.142714581313	0.007624391945
625	176564	1.226762683068	0.084048101755
625	237722	1.327488439399	0.100725756331
636	33555	1.030574211851	0.015164144299
636	69559	1.074865979413	0.044291767562
636	96603	1.113132143057	0.038266163644
636	118044	1.142714585889	0.029582442832
647	6394	1.006043714608	0.003060729698
647	17220	1.011043452082	0.004999737474
647	19003	1.012790602813	0.001747150731
647	25334	1.018971308439	0.006180705626
647	29845	1.025805627447	0.006834319008
647	31514	1.02801039306	0.002204765613
647	64662	1.069531714606	0.041521321546
647	69659	1.074865984523	0.005334269917
647	75781	1.081172083945	0.006306099422
647	90444	1.103181177637	0.022009093692
647	112603	1.135090205535	0.031909027898
658	17213	1.011043451172	0.008060468746
658	19000	1.012790600329	0.001747149157
658	25337	1.018971308667	0.006180708338
658	29854	1.025805628271	0.006834319604
658	31501	1.028010391999	0.002204763728
658	69649	1.074865984033	0.046855592034
658	90456	1.103181178773	0.02831519474
658	112607	1.135090205679	0.031909026906
669	117135	1.141794824041	0.013538103185
669	132293	1.160391214254	0.018596390213
680	40020	1.040045252265	0.001750402057
680	49200	1.050112876745	0.01006762448
680	57793	1.061567782731	0.011454905986
680	74021	1.079314260533	0.017746477802
691	44482	1.045187711941	0.008963981296
691	52246	1.053658354154	0.008470642213
691	90298	1.103181161405	0.049522807251
702	132254	1.160391211369	0.032134490364
713	33520	1.030574209596	0.00093400066
713	69508	1.074865976071	0.044291766475
713	101228	1.121301648323	0.046435672252
713	118057	1.142714587343	0.02141293902
713	164015	1.207990964036	0.065276376693
713	176479	1.226762678116	0.01877171408
724	25299	1.018971304576	0.004593572221
724	29793	1.02580562391	0.006834319334
724	31472	1.028010389056	0.002204765146
724	54139	1.056273178613	0.028262789557
724	64665	1.069531716063	0.01325853745
724	69562	1.074865979595	0.005334263532
724	75767	1.081172082817	0.006306103222
724	90427	1.103181175651	0.022009092834
724	112576	1.135090202691	0.03190902704
735	144532	1.177597124411	0.019547877448
735	161477	1.204201086831	0.02660396242
735	203735	1.27120636531	0.067005278479
735	207743	1.276772134067	0.005565768757
746	39926	1.040045246029	0.005020278122
746	49160	1.050112872669	0.01006762664
746	69643	1.074865983784	0.024753111115
746	73976	1.079314257085	0.004448273301
746	102162	1.122632262847	0.043318005762
746	118184	1.142714595712	0.020082332865
757	39947	1.040045247741	0.005020278412
757	49217	1.050112877875	0.010067630134
757	69736	1.074865988063	0.024753110188
757	73982	1.079314257168	0.004448269105
757	102175	1.122632263376	0.043318006208
768	114390	1.137628995043	0.009372271464
768	128533	1.155402814089	0.017773819046
779	39902	1.040045242562	0.005020276303
779	49187	1.050112875906	0.010067633344
779	69567	1.074865979986	0.02475310408
779	73930	1.07931425351	0.004448273524
779	102118	1.122632257788	0.043318004278
779	118116	1.142714590745	0.020082332957
790	33713	1.030574220332	0.000934007683
790	59425	1.063911927502	0.03333770717
790	73940	1.079314254785	0.015402327283
790	102093	1.122632255779	0.043318000994
790	112526	1.135090197258	0.012457941479
801	25309	1.018971305373	0.004593576897
801	29823	1.025805626677	0.006834321304
801	69652	1.074865984372	0.049060357695
801	75741	1.081172078561	0.006306094189
801	78616	1.085654351507	0.004482272946
801	90393	1.10318117301	0.017526821503
801	104892	1.12605777623	0.02287660322
801	112573	1.135090202563	0.009032426333
801	232987	1.318662161088	0.183571958525
812	39893	1.040045241997	0.005020272602
812	63090	1.067773241995	0.027727999998
812	67255	1.071883502746	0.004110260751
812	69585	1.074865981009	0.002982478263
812	73905	1.079314249514	0.004448268505
812	102098	1.122632256457	0.043318006943
812	118102	1.142714589829	0.020082333372
823	90295	1.103181160371	0.037620095168
823	102042	1.122632250408	0.019451090037
823	112484	1.135090192754	0.012457942346
823	114971	1.138341160371	0.003250967617
823	120927	1.145802358034	0.007461197663
834	119167	1.143882446375	0.01196780304
834	130810	1.158049251329	0.014166804954
834	132305	1.16039121464	0.002341963311
845	39908	1.040045245277	0.005020272636
845	42175	1.042660907914	0.002615662637
845	49236	1.050112879852	0.007451971938
845	73908	1.079314249941	0.029201370089
845	102141	1.122632259473	0.043318009532
856	52249	1.053658354216	0.017434621777
856	90307	1.103181162441	0.049522808225
856	112442	1.135090186424	0.031909023983
867	39932	1.040045246169	0.00502028056
867	49178	1.050112875325	0.010067629156
867	69646	1.074865983921	0.024753108596
867	73979	1.07931425713	0.004448273209
867	102151	1.122632261368	0.043318004238
867	118170	1.142714594174	0.020082332806
878	37446	1.036223731138	0.002542903385
878	74003	1.079314259077	0.043090527939
878	102075	1.122632254901	0.043317995824
878	112502	1.135090195077	0.012457940176
878	157739	1.197971735279	0.062881540202
878	225191	1.306923735279	0.108952
889	33596	1.030574214436	0.000934007172
889	90313	1.103181163197	0.072606948761
889	112475	1.135090191964	0.031909028767
889	118019	1.142714583841	0.007624391877
889	176473	1.226762676444	0.084048092603
900	90345	1.103181166226	0.044028724015
900	112472	1.135090191947	0.031909025721
900	138892	1.17044258399	0.035352392043
900	183612	1.237961105247	0.067518521257
900	195612	1.257969105246	0.020007999999
911	49191	1.050112876071	0.015087907337
911	67258	1.071883502915	0.021770626844
911	69579	1.074865980832	0.002982477917
911	73911	1.079314250815	0.004448269983
911	83171	1.09237274806	0.013058497245
911	102126	1.122632258231	0.030259510171
911	118132	1.142714591465	0.020082333234
922	33544	1.030574210889	0.015164143528
922	69538	1.074865978457	0.044291767568
922	90348	1.103181166311	0.028315187854
922	112496	1.135090194459	0.031909028148
922	118003	1.142714583281	0.007624388822
922	163985	1.20799096021	0.065276376929
933	143741	1.176280553411	0.004475275902
933	166582	1.211494713281	0.03521415987
933	177243	1.228112553411	0.01661784013
933	203753	1.271206367505	0.043093814094
933	206011	1.274219257501	0.003012889996
933	215277	1.290379112514	0.016159855013
944	33588	1.030574213623	0.000934006049