file 51444 1349954718                                           
version 2
run DataCentricScenario_1-0-20121011-13:20:27-2932
attr configname DataCentricScenario_1
attr datetime 20121011-13:20:27
attr experiment DataCentricScenario_1
attr inifile DataCentric.ini
attr iterationvars ""
attr iterationvars2 $repetition=0
attr measurement ""
attr network DataCentricNet
attr processid 2932
attr repetition 0
attr replication #0
attr resultdir results
attr runnumber 0
attr seedset 0
vector 97  DataCentricNet.host[8].net  AdvertInterDepartureTimesVector  ETV
97	13015 432 1136 118114 1.002284247565 1.142714591078 11 0.000962205235 0.0433180018 0.142714591078 0.003496958391741
vector 9  DataCentricNet.host[0].net  AdvertInterDepartureTimesVector  ETV
9	10662 311 1148 117988 1.002284248447 1.142714582802 8 0.000934003578 0.044291767846 0.142714582802 0.0044040990320168
vector 53  DataCentricNet.host[4].net  AdvertInterDepartureTimesVector  ETV
53	11774 518 1205 118167 1.00228425183 1.142714594897 13 0.000736356745 0.048942465635 0.142714594897 0.0036590405611631
vector 1377  DataCentricNet.dataCentricNetworkMan  helloPacketFrequency  ETV
1377	41248 1966 5454 311224 1.005 1.500862202647 74 0 125 125 15625
vector 1382  DataCentricNet.dataCentricNetworkMan  reinforcementPacketFrequency  ETV
1382	43214 1964 5454 311224 1.005 1.500862202647 74 0 0 0 0
vector 1384  DataCentricNet.dataCentricNetworkMan  breakagePacketFrequency  ETV
1384	45178 1964 5454 311224 1.005 1.500862202647 74 0 0 0 0
vector 64  DataCentricNet.host[5].net  AdvertInterDepartureTimesVector  ETV
64	12292 359 6379 112600 1.006043712728 1.135090206806 9 0.000900103338 0.060224221173 0.135090206806 0.0053390368039407
vector 647  DataCentricNet.host[58].net  AdvertInterDepartureTimesVector  ETV
647	25212 450 6382 112591 1.006043714608 1.135090205535 11 0.001747150731 0.041521321546 0.132107220625 0.0034220157414491
vector 1175  DataCentricNet.host[106].net  AdvertInterDepartureTimesVector  ETV
1175	36251 504 6391 112609 1.006043716455 1.135090207082 12 0.000900103052 0.022009093512 0.132107221259 0.0020976423477154
vector 1109  DataCentricNet.host[100].net  AdvertInterDepartureTimesVector  ETV
1109	34906 417 6397 112581 1.006043718396 1.135090204505 10 0.002204767885 0.041521323633 0.132107215751 0.0030395567106973
vector 515  DataCentricNet.host[46].net  AdvertInterDepartureTimesVector  ETV
515	21885 490 6400 112606 1.006043719434 1.135090207061 12 0.000900103261 0.031909029359 0.132107217947 0.002578549601251
vector 1351  DataCentricNet.host[122].net  AdvertInterDepartureTimesVector  ETV
1351	40030 419 6409 112567 1.006043720668 1.135090202919 10 0.003060730008 0.031909029594 0.132107212259 0.002670737065021
vector 658  DataCentricNet.host[59].net  AdvertInterDepartureTimesVector  ETV
658	25662 328 17201 112595 1.011043451172 1.135090205679 8 0.001747149157 0.046855592034 0.132107223253 0.004173176505796
vector 504  DataCentricNet.host[45].net  AdvertInterDepartureTimesVector  ETV
504	21555 330 22458 117973 1.016197371922 1.142714579337 8 0.000753568697 0.072606945063 0.127304505542 0.0060509748352646
vector 1098  DataCentricNet.host[99].net  AdvertInterDepartureTimesVector  ETV
1098	34442 464 22482 118012 1.016197375287 1.142714584321 11 0.000753568793 0.049522809185 0.128336847231 0.0036775852144165
vector 284  DataCentricNet.host[25].net  AdvertInterDepartureTimesVector  ETV
284	17332 533 22502 174150 1.016197378156 1.222404728273 13 0.000753567873 0.05887743694 0.208026994429 0.0065997023082477
vector 1010  DataCentricNet.host[91].net  AdvertInterDepartureTimesVector  ETV
1010	32625 420 22969 198206 1.016400982998 1.257208412641 10 0.001790331724 0.13115062827 0.242830676024 0.020068989821304
vector 614  DataCentricNet.host[55].net  AdvertInterDepartureTimesVector  ETV
614	24268 406 24347 112554 1.018191313866 1.135090202254 10 0.000779988117 0.04685558772 0.120712467011 0.0035439794704935
vector 185  DataCentricNet.host[16].net  AdvertInterDepartureTimesVector  ETV
185	15334 492 24359 112587 1.018191315565 1.135090205196 12 0.000779989904 0.031909028069 0.120712471521 0.002167089734518
vector 174  DataCentricNet.host[15].net  AdvertInterDepartureTimesVector  ETV
174	14965 369 24502 112469 1.018217727431 1.135090192599 9 0.000753566849 0.044291768869 0.119680121347 0.0031450036321673
vector 130  DataCentricNet.host[11].net  AdvertInterDepartureTimesVector  ETV
130	13939 451 25256 174153 1.018971300568 1.222404728531 11 0.004593566878 0.079690146933 0.208026994841 0.0092322165458628
vector 1032  DataCentricNet.host[93].net  AdvertInterDepartureTimesVector  ETV
1032	33297 294 25284 112547 1.018971304069 1.135090201019 7 0.002204763988 0.031909026139 0.120712466422 0.0030353322590103
vector 724  DataCentricNet.host[65].net  AdvertInterDepartureTimesVector  ETV
724	26649 367 25287 112564 1.018971304576 1.135090202691 9 0.002204765146 0.03190902704 0.120712470336 0.0026180513840044
vector 471  DataCentricNet.host[42].net  AdvertInterDepartureTimesVector  ETV
471	20775 450 25293 198140 1.018971304844 1.2572084048 11 0.002204763562 0.122118201054 0.242830669691 0.017448399550862
vector 801  DataCentricNet.host[72].net  AdvertInterDepartureTimesVector  ETV
801	28129 327 25297 112561 1.018971305373 1.135090202563 8 0.004482272946 0.049060357695 0.120712474087 0.0034466983605837
vector 988  DataCentricNet.host[89].net  AdvertInterDepartureTimesVector  ETV
988	32056 405 28866 218448 1.024484106586 1.290932872252 10 0.001321508678 0.132257874847 0.268250277021 0.020803602918214
vector 405  DataCentricNet.host[36].net  AdvertInterDepartureTimesVector  ETV
405	19699 331 28881 218436 1.024484108427 1.290932869792 8 0.001321509759 0.122118206902 0.268250276942 0.021473478824128
vector 119  DataCentricNet.host[10].net  AdvertInterDepartureTimesVector  ETV
119	13570 369 28890 218430 1.02448410871 1.290932869433 9 0.001321511259 0.178730372023 0.268250276144 0.033841547799266
vector 262  DataCentricNet.host[23].net  AdvertInterDepartureTimesVector  ETV
262	16881 290 28893 198197 1.024484109416 1.25720841211 7 0.001321509996 0.109165704246 0.234525817213 0.018042538881816
vector 361  DataCentricNet.host[32].net  AdvertInterDepartureTimesVector  ETV
361	18919 332 28896 198194 1.024484109563 1.257208411973 8 0.001321508139 0.100343999998 0.234525817213 0.016768056147145
vector 1362  DataCentricNet.host[123].net  AdvertInterDepartureTimesVector  ETV
1362	40449 424 29706 205683 1.025805616166 1.268634704936 10 0.003123021645 0.100343999998 0.245952110415 0.015179244820194
vector 548  DataCentricNet.host[49].net  AdvertInterDepartureTimesVector  ETV
548	22991 247 29797 117994 1.025805625661 1.142714583418 6 0.00312303009 0.044291768317 0.120031987847 0.003872320830283
vector 603  DataCentricNet.host[54].net  AdvertInterDepartureTimesVector  ETV
603	23941 327 29875 112493 1.025805630211 1.135090195131 8 0.001043674904 0.031909025174 0.112407600816 0.0025302726675913
vector 1208  DataCentricNet.host[109].net  AdvertInterDepartureTimesVector  ETV
1208	37052 334 29905 112520 1.025805631792 1.135090197535 8 0.000875374175 0.031909025448 0.112407603143 0.002590053271598
vector 42  DataCentricNet.host[3].net  AdvertInterDepartureTimesVector  ETV
42	11494 280 32483 176449 1.02964020502 1.2267626742 7 0.000934005741 0.084048091723 0.211352605466 0.011107278710855
vector 713  DataCentricNet.host[64].net  AdvertInterDepartureTimesVector  ETV
713	26402 247 33508 176467 1.030574209596 1.226762678116 6 0.00093400066 0.065276376693 0.19712246918 0.0091908011533459
vector 999  DataCentricNet.host[90].net  AdvertInterDepartureTimesVector  ETV
999	32461 164 33526 118022 1.030574210863 1.142714584747 4 0.015164144477 0.044291767332 0.127304518361 0.0045311322067752
vector 922  DataCentricNet.host[83].net  AdvertInterDepartureTimesVector  ETV
922	30734 248 33532 163973 1.030574210889 1.20799096021 6 0.007624388822 0.065276376929 0.192580892849 0.0083307845536786
vector 636  DataCentricNet.host[57].net  AdvertInterDepartureTimesVector  ETV
636	25047 165 33543 118032 1.030574211851 1.142714585889 4 0.015164144299 0.044291767562 0.127304518337 0.0045311321500251
vector 460  DataCentricNet.host[41].net  AdvertInterDepartureTimesVector  ETV
460	20569 206 33554 176455 1.0305742123 1.226762675588 5 0.000934005892 0.084048092062 0.19712246918 0.01341304106291
vector 944  DataCentricNet.host[85].net  AdvertInterDepartureTimesVector  ETV
944	31309 291 33576 226779 1.030574213623 1.309386749708 7 0.000934006049 0.084048092231 0.279746542134 0.019483224618617
vector 889  DataCentricNet.host[80].net  AdvertInterDepartureTimesVector  ETV
889	29904 208 33584 176461 1.030574214436 1.226762676444 5 0.000934007172 0.084048092603 0.19712246918 0.01341304071633
vector 1241  DataCentricNet.host[112].net  AdvertInterDepartureTimesVector  ETV
1241	37720 212 33597 176483 1.030574214879 1.226762679991 5 0.000934004068 0.091672491779 0.19712246918 0.013809572926567
vector 86  DataCentricNet.host[7].net  AdvertInterDepartureTimesVector  ETV
86	12774 241 33650 164018 1.03057421744 1.207990965083 6 0.00222814422 0.049183113285 0.179644891863 0.0073937110827612
vector 1065  DataCentricNet.host[96].net  AdvertInterDepartureTimesVector  ETV
1065	33847 298 33659 164012 1.030574217968 1.207990964927 7 0.002228145428 0.04918311351 0.179644892387 0.0071483083748347
vector 163  DataCentricNet.host[14].net  AdvertInterDepartureTimesVector  ETV
163	14800 165 33666 112433 1.030574218173 1.135090188059 4 0.000934005226 0.049522804243 0.105449975112 0.0040044439946624
vector 20  DataCentricNet.host[1].net  AdvertInterDepartureTimesVector  ETV
20	10973 162 33689 112502 1.030574219565 1.135090196661 4 0.002228145895 0.048740036777 0.106744122991 0.0044122050764601
vector 790  DataCentricNet.host[71].net  AdvertInterDepartureTimesVector  ETV
790	27923 206 33701 112514 1.030574220332 1.135090197258 5 0.000934007683 0.043318000994 0.105449984609 0.0033811562914476
vector 1307  DataCentricNet.host[118].net  AdvertInterDepartureTimesVector  ETV
1307	39108 211 33720 112509 1.030574221499 1.135090196939 5 0.000934007734 0.043317999008 0.105449983174 0.0033811560946433
vector 878  DataCentricNet.host[79].net  AdvertInterDepartureTimesVector  ETV
878	29654 250 37434 226808 1.036223731138 1.309386755377 6 0.002542903385 0.111415020098 0.275705927624 0.020262303792938
vector 812  DataCentricNet.host[73].net  AdvertInterDepartureTimesVector  ETV
812	28456 289 39881 118090 1.040045241997 1.142714589829 7 0.002982478263 0.043318006943 0.107689620434 0.0031193714727885
vector 295  DataCentricNet.host[26].net  AdvertInterDepartureTimesVector  ETV
295	17865 321 39884 118093 1.040045242215 1.142714589977 8 0.00444 0.03025950981 0.10768961967 0.0022770693010443
vector 1021  DataCentricNet.host[92].net  AdvertInterDepartureTimesVector  ETV
1021	33045 252 39887 118161 1.040045242536 1.14271459434 6 0.004448269986 0.043318008386 0.107689624961 0.0030388138065755
vector 779  DataCentricNet.host[70].net  AdvertInterDepartureTimesVector  ETV
779	27677 246 39890 118104 1.040045242562 1.142714590745 6 0.004448273524 0.043318004278 0.107689624486 0.003038813305872
vector 240  DataCentricNet.host[21].net  AdvertInterDepartureTimesVector  ETV
240	16396 281 39893 118111 1.040045244199 1.142714591019 7 0.001893232979 0.032927504763 0.107689618342 0.0026223999978607
vector 845  DataCentricNet.host[76].net  AdvertInterDepartureTimesVector  ETV
845	29078 206 39896 102129 1.040045245277 1.122632259473 5 0.002615662637 0.043318009532 0.087607286832 0.0028167466790243
vector 1153  DataCentricNet.host[104].net  AdvertInterDepartureTimesVector  ETV
1153	35825 211 39899 102125 1.040045245308 1.122632259267 5 0.005020273927 0.043318008021 0.087607287886 0.0025321863245115
vector 306  DataCentricNet.host[27].net  AdvertInterDepartureTimesVector  ETV
306	18186 243 39902 118087 1.04004524549 1.142714589545 6 0.004448272989 0.043318001457 0.107689624853 0.0030388130484112
vector 1285  DataCentricNet.host[116].net  AdvertInterDepartureTimesVector  ETV
1285	38527 291 39905 102103 1.040045245721 1.122632257702 7 0.001326715637 0.029201367424 0.084337406765 0.0016103051099642
vector 592  DataCentricNet.host[53].net  AdvertInterDepartureTimesVector  ETV
592	23694 247 39908 118164 1.040045245896 1.142714594699 6 0.004448269929 0.043318005873 0.107689627304 0.0030388136288428
vector 746  DataCentricNet.host[67].net  AdvertInterDepartureTimesVector  ETV
746	27140 247 39914 118172 1.040045246029 1.142714595712 6 0.004448273301 0.043318005762 0.107689627805 0.0030388136603139
vector 966  DataCentricNet.host[87].net  AdvertInterDepartureTimesVector  ETV
966	31684 246 39917 118117 1.040045246068 1.142714591395 6 0.005020277481 0.043318004136 0.107689622808 0.0029354860531301
vector 867  DataCentricNet.host[78].net  AdvertInterDepartureTimesVector  ETV
867	29408 246 39920 118158 1.040045246169 1.142714594174 6 0.004448273209 0.043318004238 0.107689628565 0.0030388134755255
vector 273  DataCentricNet.host[24].net  AdvertInterDepartureTimesVector  ETV
273	17171 161 39925 73973 1.040045246905 1.079314257436 4 0.004448271924 0.02475311394 0.044289287231 0.00075906401741662
vector 1230  DataCentricNet.host[111].net  AdvertInterDepartureTimesVector  ETV
1230	37511 209 39928 102133 1.040045246986 1.122632260976 5 0.005020277935 0.043318005427 0.087607291925 0.0025321861297922
vector 757  DataCentricNet.host[68].net  AdvertInterDepartureTimesVector  ETV
757	27387 206 39935 102163 1.040045247741 1.122632263376 5 0.004448269105 0.043318006208 0.087607294047 0.0026355135956951
vector 1087  DataCentricNet.host[98].net  AdvertInterDepartureTimesVector  ETV
1087	34231 211 39966 102160 1.040045249503 1.122632263203 5 0.001750405491 0.043318007639 0.084337419191 0.0025100470925391
vector 1296  DataCentricNet.host[117].net  AdvertInterDepartureTimesVector  ETV
1296	38818 290 39969 200042 1.04004524956 1.260149890167 7 0.001157616294 0.137517627163 0.225124917417 0.021395560076732
vector 196  DataCentricNet.host[17].net  AdvertInterDepartureTimesVector  ETV
196	15826 162 39976 73999 1.040045249923 1.079314260227 4 0.004448272932 0.024753118218 0.044289286904 0.00075906412616234
vector 141  DataCentricNet.host[12].net  AdvertInterDepartureTimesVector  ETV
141	14390 245 40000 76115 1.040045251845 1.081518307501 6 0.001750402068 0.013298210632 0.043223457724 0.00043712314613675
vector 680  DataCentricNet.host[61].net  AdvertInterDepartureTimesVector  ETV
680	26074 163 40008 74009 1.040045252265 1.079314260533 4 0.001750402057 0.017746477802 0.041019410325 0.00055057331555642
vector 394  DataCentricNet.host[35].net  AdvertInterDepartureTimesVector  ETV
394	19577 122 40060 74041 1.040045255522 1.079314262956 3 0.001750403909 0.029201382666 0.041019411343 0.00095714173192005
vector 526  DataCentricNet.host[47].net  AdvertInterDepartureTimesVector  ETV
526	22375 288 41175 131389 1.04137196179 1.158807852471 7 0.001288947461 0.043318006525 0.12051300447 0.003513558897866
vector 31  DataCentricNet.host[2].net  AdvertInterDepartureTimesVector  ETV
31	11135 359 44460 245771 1.045187711725 1.346309650693 9 0.007624389093 0.119546968437 0.310085918074 0.021476196124552
vector 691  DataCentricNet.host[62].net  AdvertInterDepartureTimesVector  ETV
691	26237 123 44470 90286 1.045187711941 1.103181161405 3 0.008470642213 0.049522807251 0.06695743076 0.0026046131781954
vector 1373  DataCentricNet.host[124].net  AdvertInterDepartureTimesVector  ETV
1373	40873 375 44487 251729 1.045187712528 1.355857596213 9 0.005494087437 0.185415017446 0.319633862859 0.037907697876248
vector 625  DataCentricNet.host[56].net  AdvertInterDepartureTimesVector  ETV
625	24674 373 44490 251732 1.045187712537 1.355857596242 9 0.005494085476 0.129094913174 0.319633863128 0.026489707236665
vector 482  DataCentricNet.host[43].net  AdvertInterDepartureTimesVector  ETV
482	21225 165 46769 102157 1.047728925136 1.122632263179 4 0.002383957868 0.043318007533 0.084337418019 0.002823855060916
vector 1340  DataCentricNet.host[121].net  AdvertInterDepartureTimesVector  ETV
1340	39735 295 48083 218469 1.048662058191 1.290932873957 7 0.004115626664 0.187462620313 0.258966334652 0.036296336984189
vector 1131  DataCentricNet.host[102].net  AdvertInterDepartureTimesVector  ETV
1131	35532 208 49109 74798 1.050112868271 1.080402501936 5 0.001088243446 0.013298207181 0.033930761255 0.00034228650432944
vector 339  DataCentricNet.host[30].net  AdvertInterDepartureTimesVector  ETV
339	18716 163 49118 73977 1.050112870122 1.079314257805 4 0.003641131174 0.013298208223 0.032842518857 0.00034110222529914
vector 317  DataCentricNet.host[28].net  AdvertInterDepartureTimesVector  ETV
317	18429 163 49124 74015 1.05011287041 1.079314260634 4 0.003641130081 0.013298208945 0.032842520305 0.00034110227737441
vector 1318  DataCentricNet.host[119].net  AdvertInterDepartureTimesVector  ETV
1318	39319 167 49142 95934 1.050112871859 1.112308512691 4 0.006161133974 0.032994247701 0.068356774806 0.0015727326123298
vector 493  DataCentricNet.host[44].net  AdvertInterDepartureTimesVector  ETV
493	21390 165 49160 117182 1.050112874983 1.141794831023 4 0.006161134168 0.062480566862 0.097843090208 0.0043879332988378
vector 1197  DataCentricNet.host[108].net  AdvertInterDepartureTimesVector  ETV
1197	36841 211 49163 164960 1.050112875015 1.209062304342 5 0.002204040246 0.127543999999 0.165110569922 0.016756441915529
vector 108  DataCentricNet.host[9].net  AdvertInterDepartureTimesVector  ETV
108	13447 123 49169 74035 1.050112875358 1.079314262002 3 0.006161137914 0.017746478806 0.035362524558 0.00048411204398421
vector 911  DataCentricNet.host[82].net  AdvertInterDepartureTimesVector  ETV
911	30446 288 49179 118120 1.050112876071 1.142714591465 7 0.002982477917 0.030259510171 0.107689622731 0.0022197498355656
vector 1219  DataCentricNet.host[110].net  AdvertInterDepartureTimesVector  ETV
1219	37386 125 49185 73948 1.050112876673 1.079314256318 3 0.00525300598 0.023948373665 0.037942289286 0.00067752217437651
vector 570  DataCentricNet.host[51].net  AdvertInterDepartureTimesVector  ETV
570	23447 164 49231 110184 1.050112880071 1.133144820738 4 0.000858804446 0.053830558781 0.089193081355 0.0037397279542709
vector 537  DataCentricNet.host[48].net  AdvertInterDepartureTimesVector  ETV
537	22663 328 49243 247145 1.050112880746 1.348830237676 8 0.000858803784 0.090079999999 0.304878499251 0.018831062927678
vector 416  DataCentricNet.host[37].net  AdvertInterDepartureTimesVector  ETV
416	20030 165 50020 112506 1.051234732179 1.135090196724 4 0.012457940215 0.043317997899 0.101409369604 0.0031282486037879
vector 856  DataCentricNet.host[77].net  AdvertInterDepartureTimesVector  ETV
856	29284 124 52237 112430 1.053658354216 1.135090186424 3 0.017434621777 0.049522808225 0.098866453985 0.0037746603825448
vector 1142  DataCentricNet.host[103].net  AdvertInterDepartureTimesVector  ETV
1142	35740 85 52240 112451 1.053658354372 1.135090191318 2 0.017434622581 0.081431836946 0.098866459527 0.0069351101329418
vector 207  DataCentricNet.host[18].net  AdvertInterDepartureTimesVector  ETV
207	15988 207 52274 112478 1.053658360019 1.135090193013 5 0.012457939704 0.025655900553 0.098866461732 0.0020653657115625
vector 251  DataCentricNet.host[22].net  AdvertInterDepartureTimesVector  ETV
251	16677 204 53589 165917 1.055758128203 1.210270201154 5 0.003113639885 0.13095594077 0.157625712836 0.017389534667053
vector 328  DataCentricNet.host[29].net  AdvertInterDepartureTimesVector  ETV
328	18592 124 73988 112496 1.079314258721 1.135090196036 3 0.012457940518 0.04563343202 0.101409369335 0.0041140592463789
vector 1329  DataCentricNet.host[120].net  AdvertInterDepartureTimesVector  ETV
1329	39486 249 83873 205713 1.093383857571 1.268634709053 6 0.005706532325 0.113311999998 0.181840319157 0.014387817408707
vector 372  DataCentricNet.host[33].net  AdvertInterDepartureTimesVector  ETV
372	19251 243 88616 307800 1.101134539487 1.490862202647 6 0.00728 0.199929328505 0.458895663157 0.060346140937833
vector 823  DataCentricNet.host[74].net  AdvertInterDepartureTimesVector  ETV
823	28745 209 90283 120915 1.103181160371 1.145802358034 5 0.003250967617 0.037620095168 0.080241292831 0.0020150550525863
vector 152  DataCentricNet.host[13].net  AdvertInterDepartureTimesVector  ETV
152	14635 165 90289 120920 1.10318116194 1.145802358941 4 0.010712166849 0.03762009719 0.080241294191 0.0020635673950017
vector 1054  DataCentricNet.host[95].net  AdvertInterDepartureTimesVector  ETV
1054	33676 171 90315 149996 1.103181164344 1.185559276043 4 0.012457938951 0.050469082606 0.119998214172 0.0044959455597893
vector 900  DataCentricNet.host[81].net  AdvertInterDepartureTimesVector  ETV
900	30112 334 90333 282864 1.103181166226 1.416865105242 8 0.004695506191 0.073975999998 0.357712663031 0.019359804270978
vector 768  DataCentricNet.host[69].net  AdvertInterDepartureTimesVector  ETV
768	27593 84 114378 128521 1.137628995043 1.155402814089 2 0.009372271464 0.017773819046 0.02714609051 0.00040374811587486
vector 669  DataCentricNet.host[60].net  AdvertInterDepartureTimesVector  ETV
669	25990 84 117123 132281 1.141794824041 1.160391214254 2 0.013538103185 0.018596390213 0.032134493398 0.00052910596680187
vector 977  DataCentricNet.host[88].net  AdvertInterDepartureTimesVector  ETV
977	31930 126 117139 159279 1.141794826064 1.200206410789 3 0.013538102029 0.034206766988 0.071949686754 0.0019392563160003
vector 1120  DataCentricNet.host[101].net  AdvertInterDepartureTimesVector  ETV
1120	35323 209 117146 200251 1.141794826639 1.260287811842 5 0.003566400517 0.061752 0.132031084375 0.0054938552365772
vector 1274  DataCentricNet.host[115].net  AdvertInterDepartureTimesVector  ETV
1274	38312 215 117164 200244 1.141794827982 1.260287810742 5 0.003566398414 0.060081400191 0.132031086945 0.0054018212824128
vector 1252  DataCentricNet.host[113].net  AdvertInterDepartureTimesVector  ETV
1252	37932 209 118050 205716 1.142714587432 1.268634709166 5 0.004111385532 0.096543999998 0.18184031756 0.012899864873965
vector 75  DataCentricNet.host[6].net  AdvertInterDepartureTimesVector  ETV
75	12651 123 118059 128549 1.142714588237 1.155402819091 3 0.001167856705 0.011520374149 0.017773816121 0.00015994608732429
vector 1186  DataCentricNet.host[107].net  AdvertInterDepartureTimesVector  ETV
1186	36755 86 118083 128558 1.142714589515 1.155402820164 2 0.005085587224 0.012688230649 0.017773817873 0.00018685439441513
vector 955  DataCentricNet.host[86].net  AdvertInterDepartureTimesVector  ETV
955	31600 84 119098 128536 1.143882443003 1.155402818369 2 0.006253441746 0.011520375366 0.017773817112 0.00017182458224416
vector 427  DataCentricNet.host[38].net  AdvertInterDepartureTimesVector  ETV
427	20195 83 119125 132263 1.143882445182 1.160391213447 2 0.00625344202 0.016508768265 0.022762210285 0.00031164496672497
vector 834  DataCentricNet.host[75].net  AdvertInterDepartureTimesVector  ETV
834	28954 124 119155 132293 1.143882446375 1.16039121464 3 0.002341963311 0.014166804954 0.028476571305 0.00034941146435898
vector 218  DataCentricNet.host[19].net  AdvertInterDepartureTimesVector  ETV
218	16195 159 126623 227314 1.15326056273 1.310539109087 4 0.0038 0.127673010546 0.161078546357 0.016888126870453
vector 438  DataCentricNet.host[39].net  AdvertInterDepartureTimesVector  ETV
438	20278 83 128524 132212 1.155402815552 1.160391205972 2 0.00498839042 0.027146092197 0.032134482617 0.00076179436055037
vector 350  DataCentricNet.host[31].net  AdvertInterDepartureTimesVector  ETV
350	18879 40 132221 132221 1.1603912093 1.1603912093 1 0.035396390297 0.035396390297 0.035396390297 0.0012529044460576
vector 229  DataCentricNet.host[20].net  AdvertInterDepartureTimesVector  ETV
229	16354 42 132227 132227 1.160391210049 1.160391210049 1 0.035396391065 0.035396391065 0.035396391065 0.0012529045004264
vector 1043  DataCentricNet.host[94].net  AdvertInterDepartureTimesVector  ETV
1043	33591 85 132239 145962 1.16039121134 1.179951775666 2 0.019560564326 0.035396389872 0.054956954198 0.0016355200927222
vector 702  DataCentricNet.host[63].net  AdvertInterDepartureTimesVector  ETV
702	26360 42 132242 132242 1.160391211369 1.160391211369 1 0.032134490364 0.032134490364 0.032134490364 0.001032625470954
vector 1076  DataCentricNet.host[97].net  AdvertInterDepartureTimesVector  ETV
1076	34145 86 132266 145983 1.160391213597 1.179951776893 2 0.019560563296 0.032134492714 0.05169505601 0.0014152412584429
vector 1164  DataCentricNet.host[105].net  AdvertInterDepartureTimesVector  ETV
1164	36036 215 143714 227329 1.176280551572 1.310539110489 5 0.004475272953 0.060068995117 0.13873383187 0.0059053446406962
vector 559  DataCentricNet.host[50].net  AdvertInterDepartureTimesVector  ETV
559	23238 209 143722 262183 1.17628055258 1.374517276675 5 0.004475275904 0.063978164971 0.202711999999 0.010480636967891
vector 933  DataCentricNet.host[84].net  AdvertInterDepartureTimesVector  ETV
933	30982 327 143729 289216 1.176280553411 1.431221010105 8 0.004475275902 0.098321897591 0.259415732596 0.014069789438465
vector 735  DataCentricNet.host[66].net  AdvertInterDepartureTimesVector  ETV
735	27016 124 144520 273881 1.177597124411 1.39913436531 3 0.019547877448 0.194933278479 0.241085118347 0.039088873387738
vector 581  DataCentricNet.host[52].net  AdvertInterDepartureTimesVector  ETV
581	23611 83 147875 227317 1.182866096634 1.31053910923 2 0.004210469345 0.127673012596 0.131883481941 0.016318126197444
vector 1263  DataCentricNet.host[114].net  AdvertInterDepartureTimesVector  ETV
1263	38141 171 153279 203385 1.190609851115 1.265048552476 4 0.013591241308 0.035936139896 0.106999299921 0.0031568944414672
vector 449  DataCentricNet.host[40].net  AdvertInterDepartureTimesVector  ETV
449	20361 208 153285 273887 1.190609852822 1.399134366102 5 0.013591240998 0.134380046752 0.24108511215 0.021200318415247
vector 383  DataCentricNet.host[34].net  AdvertInterDepartureTimesVector  ETV
383	19494 83 188836 205728 1.24482008146 1.268634710324 2 0.023814628864 0.096777371134 0.120591999998 0.009932996111538
vector 1391  DataCentricNet.dataCentricNetworkMan  demandVector  ETV
1391	47142 4302 334768 6950062 3 50403 183 140 580 79460 37255600
