version 2
run DataCentricScenario_4-0-20121026-12:59:33-2268
attr configname DataCentricScenario_4
attr datetime 20121026-12:59:33
attr experiment DataCentricScenario_4
attr inifile DataCentric.ini
attr iterationvars ""
attr iterationvars2 $repetition=0
attr measurement ""
attr network DataCentricNet
attr processid 2268
attr repetition 0
attr replication #0
attr resultdir results
attr runnumber 0
attr seedset 0

vector 1502  DataCentricNet.dataCentricNetworkMan  helloPacketFrequency  ETV
vector 1507  DataCentricNet.dataCentricNetworkMan  reinforcementPacketFrequency  ETV
vector 1509  DataCentricNet.dataCentricNetworkMan  breakagePacketFrequency  ETV
vector 14  DataCentricNet.host[1].app  demandVec  ETV
vector 1516  DataCentricNet.dataCentricNetworkMan  demandVector  ETV
vector 26  DataCentricNet.host[2].app  demandVec  ETV
vector 38  DataCentricNet.host[3].app  demandVec  ETV
vector 50  DataCentricNet.host[4].app  demandVec  ETV
vector 1508  DataCentricNet.dataCentricNetworkMan  dataPacketE2EDelay  ETV
14	336235	3	3000
14	347759	3.07094192849	0
14	859785	3783.013566365977	3000
14	1075450	5403.016730119207	0
14	1104389	5583.026455157051	3000
14	1556308	9003.023251680113	0
14	1582962	9183.014097506418	3000
14	2344717	14942.943195301636	0
26	336236	3	0
26	589729	1803	3000
26	617144	1983	0
26	1073608	5403	3000
26	1101022	5583	0
26	1553702	9003	3000
26	1581117	9183	0
26	2517678	16203	3000
26	2545093	16383	0
38	336237	3	0
38	2112548	13203	0
38	2347136	14942.959722220814	3000
38	2427257	15542.959722220814	0
38	2832394	18542.959722220816	3000
38	2914935	19142.959722220816	0
50	336238	3	3000
50	593050	1803.024830349074	0
50	619722	1983.014455013999	3000
50	857188	3782.989624664925	0
1502	5690	1.005	125
1502	16661	1.01	0
1502	21576	1.015	0
1502	26226	1.02	0
1502	29121	1.025	0
1502	33312	1.03	0
1502	36766	1.035	0
1502	42043	1.04	0
1502	46963	1.045	0
1502	52075	1.05	0
1502	56789	1.055	0
1502	63558	1.06	0
1502	67857	1.065	0
1502	73061	1.07	0
1502	77498	1.075	0
1502	81259	1.08	0
1502	85288	1.085	0
1502	88691	1.09	0
1502	93397	1.095	0
1502	97200	1.1	0
1502	100620	1.105	0
1502	106492	1.11	0
1502	110266	1.115104820645	0
1502	113772	1.120104820645	0
1502	117963	1.125104820645	0
1502	121580	1.130104820645	0
1502	126556	1.135104820645	0
1502	130734	1.140104820645	0
1502	134663	1.145104820645	0
1502	140886	1.152309030261	0
1502	144160	1.157309030261	0
1502	147235	1.162309030261	0
1502	150656	1.167309030261	0
1502	154904	1.172309030261	0
1502	158577	1.177309030261	0
1502	162439	1.182309030261	0
1502	165673	1.187309030261	0
1502	169931	1.192309030261	0
1502	173747	1.197309030261	0
1502	177760	1.202309030261	0
1502	187672	1.216982175891	0
1502	190742	1.221982175891	0
1502	193819	1.226982175891	0
1502	197723	1.232620712416	0
1502	201204	1.237620712416	0
1502	213278	1.255556712416	0
1502	216035	1.260556712416	0
1502	223608	1.272109754388	0
1502	226951	1.277109754388	0
1502	233734	1.286499230517	0
1502	237782	1.291499230517	0
1502	241745	1.296499230517	0
1502	252101	1.312981866431	0
1502	254961	1.317981866431	0
1502	270796	1.345943191686	0
1502	274235	1.350943191686	0
1502	277279	1.355943191686	0
1502	279466	1.360943191686	0
1502	336524	3.005	0
1502	338286	3.010017879712	0
1502	339659	3.015555802239	0
1502	340578	3.023709388472	0
1502	341964	3.029605806388	0
1502	344268	3.048013845206	0
1502	350590	3.082261955845	0
1502	589993	1803.005	0
1502	591381	1803.010285687518	0
1502	592889	1803.021719667256	0
1502	617408	1983.005	0
1502	618796	1983.010714377708	0
1502	857193	3782.994624664925	0
1502	858207	3783.00373560588	0
1502	859367	3783.008788146983	0
1502	1073738	5403.005	0
1502	1075257	5403.013461153898	0
1502	1101152	5583.005	0
1502	1102292	5583.014405013729	0
1502	1103961	5583.022895139817	0
1502	1553832	9003.005	0
1502	1554588	9003.013000687339	0
1502	1556859	9003.023811662879	0
1502	1581381	9183.005	0
1502	1582766	9183.010793481946	0
1502	2113441	13203.005	0
1502	2115849	13203.017424931645	0
1502	2345215	14942.948195301636	0
1502	2347885	14942.961210208515	0
1502	2427396	15542.964722220814	0
1502	2428169	15542.97003209372	0
1502	2430311	15542.979407703581	0
1502	2517811	16203.005	0
1502	2519080	16203.01127992345	0
1502	2520841	16203.023921074979	0
1502	2545229	16383.005	0
1502	2546110	16383.011081460876	0
1502	2548257	16383.020345478235	0
1502	2832402	18542.964722220816	0
1502	2833306	18542.971747844272	0
1502	2836183	18542.983172352911	0
1502	2914940	19142.964722220816	0
1502	2915847	19142.972263512944	0
1502	2917001	19142.977506914095	0
1507	5690	1.005	0
1507	16661	1.01	0
1507	21576	1.015	0
1507	26226	1.02	0
1507	29121	1.025	0
1507	33312	1.03	0
1507	36766	1.035	0
1507	42043	1.04	0
1507	46963	1.045	0
1507	52075	1.05	0
1507	56789	1.055	0
1507	63558	1.06	0
1507	67857	1.065	0
1507	73061	1.07	0
1507	77498	1.075	0
1507	81259	1.08	0
1507	85288	1.085	0
1507	88691	1.09	0
1507	93397	1.095	0
1507	97200	1.1	0
1507	100620	1.105	0
1507	106492	1.11	0
1507	110266	1.115104820645	0
1507	113772	1.120104820645	0
1507	117963	1.125104820645	0
1507	121580	1.130104820645	0
1507	126556	1.135104820645	0
1507	130734	1.140104820645	0
1507	134663	1.145104820645	0
1507	140886	1.152309030261	0
1507	144160	1.157309030261	0
1507	147235	1.162309030261	0
1507	150656	1.167309030261	0
1507	154904	1.172309030261	0
1507	158577	1.177309030261	0
1507	162439	1.182309030261	0
1507	165673	1.187309030261	0
1507	169931	1.192309030261	0
1507	173747	1.197309030261	0
1507	177760	1.202309030261	0
1507	187672	1.216982175891	0
1507	190742	1.221982175891	0
1507	193819	1.226982175891	0
1507	197723	1.232620712416	0
1507	201204	1.237620712416	0
1507	213278	1.255556712416	0
1507	216035	1.260556712416	0
1507	223608	1.272109754388	0
1507	226951	1.277109754388	0
1507	233734	1.286499230517	0
1507	237782	1.291499230517	0
1507	241745	1.296499230517	0
1507	252101	1.312981866431	0
1507	254961	1.317981866431	0
1507	270796	1.345943191686	0
1507	274235	1.350943191686	0
1507	277279	1.355943191686	0
1507	279466	1.360943191686	0
1507	336524	3.005	0
1507	338286	3.010017879712	0
1507	339659	3.015555802239	0
1507	340578	3.023709388472	0
1507	341964	3.029605806388	0
1507	344268	3.048013845206	0
1507	350590	3.082261955845	0
1507	589993	1803.005	0
1507	591381	1803.010285687518	0
1507	592889	1803.021719667256	0
1507	617408	1983.005	0
1507	618796	1983.010714377708	0
1507	857193	3782.994624664925	0
1507	858207	3783.00373560588	0
1507	859367	3783.008788146983	0
1507	1073738	5403.005	0
1507	1075257	5403.013461153898	0
1507	1101152	5583.005	0
1507	1102292	5583.014405013729	0
1507	1103961	5583.022895139817	0
1507	1553832	9003.005	0
1507	1554588	9003.013000687339	0
1507	1556859	9003.023811662879	0
1507	1581381	9183.005	0
1507	1582766	9183.010793481946	0
1507	2113441	13203.005	0
1507	2115849	13203.017424931645	0
1507	2345215	14942.948195301636	0
1507	2347885	14942.961210208515	0
1507	2427396	15542.964722220814	0
1507	2428169	15542.97003209372	0
1507	2430311	15542.979407703581	0
1507	2517811	16203.005	0
1507	2519080	16203.01127992345	0
1507	2520841	16203.023921074979	0
1507	2545229	16383.005	0
1507	2546110	16383.011081460876	0
1507	2548257	16383.020345478235	0
1507	2832402	18542.964722220816	0
1507	2833306	18542.971747844272	0
1507	2836183	18542.983172352911	0
1507	2914940	19142.964722220816	0
1507	2915847	19142.972263512944	0
1507	2917001	19142.977506914095	0
1508	336573	3.005017879712	0.005017879712
1508	337588	3.008685630407	0.008685630407
1508	339824	3.018709388472	0.018709388472
1508	340597	3.024605806388	0.024605806388
1508	341416	3.028693817117	0.028693817117
1508	342111	3.038541832907	0.038541832907
1508	344457	3.049973876919	0.049973876919
1508	346199	3.063405891975	0.063405891975
1508	347017	3.067173907764	0.067173907764
1508	347757	3.07094192849	0.07094192849
1508	348457	3.074069943546	0.074069943546
1508	350034	3.081413973079	0.081413973079
1508	350789	3.085245993805	0.085245993805
1508	351495	3.095173963363	0.095173963363
1508	352249	3.115901978399	0.115901978399
1508	353003	3.121013993434	0.121013993434
1508	590042	1803.005285687518	0.005285687518
1508	590758	1803.008799634965	0.008799634965
1508	591567	1803.012279650021	0.012279650021
1508	593048	1803.024830349074	0.024830349074
1508	617457	1983.005714377708	0.005714377708
1508	618945	1983.012258982478	0.012258982478
1508	619720	1983.014455013999	0.014455013999
1508	620504	1983.017050997534	0.017050997534
1508	858230	3783.003788146983	0.014163482058
1508	859044	3783.008454345251	0.018829680326
1508	859783	3783.013566365977	0.023941701052
1508	860483	3783.017078381033	0.027453716108
1508	1073921	5403.008461153898	0.008461153898
1508	1075448	5403.016730119207	0.016730119207
1508	1076163	5403.02005480488	0.02005480488
1508	1076902	5403.021810134263	0.021810134263
1508	1101335	5583.009405013729	0.009405013729
1508	1102051	5583.014383127518	0.014383127518
1508	1103602	5583.022687147335	0.022687147335
1508	1104387	5583.026455157051	0.026455157051
1508	1554015	9003.008000687339	0.008000687339
1508	1554732	9003.01437165058	0.01437165058
1508	1556306	9003.023251680113	0.023251680113
1508	1557021	9003.027175219403	0.027175219403
1508	1581430	9183.005793481946	0.005793481946
1508	1582960	9183.014097506418	0.014097506418
1508	1583672	9183.016362784788	0.016362784788
1508	1584415	9183.023937521474	0.023937521474
1508	2112828	13203.004418024924	0.004418024924
1508	2113637	13203.00833691441	0.00833691441
1508	2115122	13203.015552939162	0.015552939162
1508	2115914	13203.017472949614	0.017472949614
1508	2344904	14942.947906179816	0.00471087818
1508	2345667	14942.952058190546	0.00886288891
1508	2347134	14942.959722220814	0.016526919178
1508	2347910	14942.961964256344	0.018768954708
1508	2427413	15542.96503209372	0.005309872906
1508	2428234	15542.970255685614	0.0105334648
1508	2429712	15542.97767344453	0.017951223716
1508	2430497	15542.980727720814	0.0210055
1508	2517991	16203.00627992345	0.00627992345
1508	2518705	16203.01100104269	0.01100104269
1508	2519516	16203.014161057744	0.014161057744
1508	2520997	16203.025063999756	0.025063999756
1508	2545406	16383.006081460876	0.006081460876
1508	2546123	16383.011193465936	0.011193465936
1508	2547703	16383.01949749547	0.01949749547
1508	2548416	16383.023487163696	0.023487163696
1508	2832550	18542.966747844272	0.007025623456
1508	2833371	18542.971916314954	0.012194094138
1508	2834107	18542.97504433568	0.015322114864
1508	2835587	18542.981421740414	0.021699519598
1508	2915091	19142.967263512944	0.007541292128
1508	2916680	19142.977298932062	0.017576711246
1508	2917421	19142.981450952788	0.021728731972
1508	2918133	19142.987356521842	0.027634301026
1509	5690	1.005	0
1509	16661	1.01	0
1509	21576	1.015	0
1509	26226	1.02	0
1509	29121	1.025	0
1509	33312	1.03	0
1509	36766	1.035	0
1509	42043	1.04	0
1509	46963	1.045	0
1509	52075	1.05	0
1509	56789	1.055	0
1509	63558	1.06	0
1509	67857	1.065	0
1509	73061	1.07	0
1509	77498	1.075	0
1509	81259	1.08	0
1509	85288	1.085	0
1509	88691	1.09	0
1509	93397	1.095	0
1509	97200	1.1	0
1509	100620	1.105	0
1509	106492	1.11	0
1509	110266	1.115104820645	0
1509	113772	1.120104820645	0
1509	117963	1.125104820645	0
1509	121580	1.130104820645	0
1509	126556	1.135104820645	0
1509	130734	1.140104820645	0
1509	134663	1.145104820645	0
1509	140886	1.152309030261	0
1509	144160	1.157309030261	0
1509	147235	1.162309030261	0
1509	150656	1.167309030261	0
1509	154904	1.172309030261	0
1509	158577	1.177309030261	0
1509	162439	1.182309030261	0
1509	165673	1.187309030261	0
1509	169931	1.192309030261	0
1509	173747	1.197309030261	0
1509	177760	1.202309030261	0
1509	187672	1.216982175891	0
1509	190742	1.221982175891	0
1509	193819	1.226982175891	0
1509	197723	1.232620712416	0
1509	201204	1.237620712416	0
1509	213278	1.255556712416	0
1509	216035	1.260556712416	0
1509	223608	1.272109754388	0
1509	226951	1.277109754388	0
1509	233734	1.286499230517	0
1509	237782	1.291499230517	0
1509	241745	1.296499230517	0
1509	252101	1.312981866431	0
1509	254961	1.317981866431	0
1509	270796	1.345943191686	0
1509	274235	1.350943191686	0
1509	277279	1.355943191686	0
1509	279466	1.360943191686	0
1509	336524	3.005	0
1509	338286	3.010017879712	0
1509	339659	3.015555802239	0
1509	340578	3.023709388472	0
1509	341964	3.029605806388	0
1509	344268	3.048013845206	0
1509	350590	3.082261955845	0
1509	589993	1803.005	0
1509	591381	1803.010285687518	0
1509	592889	1803.021719667256	0
1509	617408	1983.005	0
1509	618796	1983.010714377708	0
1509	857193	3782.994624664925	0
1509	858207	3783.00373560588	0
1509	859367	3783.008788146983	0
1509	1073738	5403.005	0
1509	1075257	5403.013461153898	0
1509	1101152	5583.005	0
1509	1102292	5583.014405013729	0
1509	1103961	5583.022895139817	0
1509	1553832	9003.005	0
1509	1554588	9003.013000687339	0
1509	1556859	9003.023811662879	0
1509	1581381	9183.005	0
1509	1582766	9183.010793481946	0
1509	2113441	13203.005	0
1509	2115849	13203.017424931645	0
1509	2345215	14942.948195301636	0
1509	2347885	14942.961210208515	0
1509	2427396	15542.964722220814	0
1509	2428169	15542.97003209372	0
1509	2430311	15542.979407703581	0
1509	2517811	16203.005	0
1509	2519080	16203.01127992345	0
1509	2520841	16203.023921074979	0
1509	2545229	16383.005	0
1509	2546110	16383.011081460876	0
1509	2548257	16383.020345478235	0
1509	2832402	18542.964722220816	0
1509	2833306	18542.971747844272	0
1509	2836183	18542.983172352911	0
1509	2914940	19142.964722220816	0
1509	2915847	19142.972263512944	0
1509	2917001	19142.977506914095	0
1516	336235	3	3000
1516	336236	3	3000
1516	336237	3	3000
1516	336238	3	6000
1516	347759	3.07094192849	3000
1516	392974	303.07094192849	3000
1516	432350	603.07094192849	3000
1516	471726	903.07094192849	3000
1516	511102	1203.07094192849	3000
1516	550478	1503.07094192849	3000
1516	589729	1803	6000
1516	593050	1803.024830349074	3000
1516	617144	1983	0
1516	619722	1983.014455013999	3000
1516	660433	2283.014455013999	3000
1516	699809	2583.014455013999	3000
1516	739185	2883.014455013999	3000
1516	778561	3183.014455013999	3000
1516	817937	3483.014455013999	3000
1516	857188	3782.989624664925	0
1516	859785	3783.013566365977	3000
1516	900478	4083.013566365977	3000
1516	939854	4383.013566365977	3000
1516	979230	4683.013566365977	3000
1516	1018606	4983.013566365977	3000
1516	1057982	5283.013566365977	3000
1516	1073608	5403	6000
1516	1075450	5403.016730119207	3000
1516	1101022	5583	0
1516	1104389	5583.026455157051	3000
1516	1144316	5883.026455157051	3000
1516	1183692	6183.026455157051	3000
1516	1223068	6483.026455157051	3000
1516	1262444	6783.026455157051	3000
1516	1301820	7083.026455157051	3000
1516	1341196	7383.026455157051	3000
1516	1380572	7683.026455157051	3000
1516	1419948	7983.026455157051	3000
1516	1459324	8283.026455157051	3000
1516	1498700	8583.026455157051	3000
1516	1538076	8883.026455157051	3000
1516	1553702	9003	6000
1516	1556308	9003.023251680113	3000
1516	1581117	9183	0
1516	1582962	9183.014097506418	3000
1516	1624410	9483.014097506418	3000
1516	1663786	9783.014097506418	3000
1516	1703162	10083.014097506418	3000
1516	1742538	10383.014097506418	3000
1516	1781914	10683.014097506418	3000
1516	1821290	10983.014097506418	3000
1516	1860666	11283.014097506418	3000
1516	1900042	11583.014097506418	3000
1516	1939418	11883.014097506418	3000
1516	1978794	12183.014097506418	3000
1516	2018170	12483.014097506418	3000
1516	2057546	12783.014097506418	3000
1516	2096922	13083.014097506418	3000
1516	2112548	13203	3000
1516	2155712	13503	3000
1516	2195088	13803	3000
1516	2234464	14103	3000
1516	2273840	14403	3000
1516	2313216	14703	3000
1516	2344717	14942.943195301636	0
1516	2347136	14942.959722220814	3000
1516	2387881	15242.959722220814	3000
1516	2427257	15542.959722220814	0
1516	2470426	15842.959722220814	0
1516	2509802	16142.959722220814	0
1516	2517678	16203	3000
1516	2545093	16383	0
1516	2588262	16683	0
1516	2627638	16983	0
1516	2667014	17283	0
1516	2706390	17583	0
1516	2745766	17883	0
1516	2785142	18183	0
1516	2824518	18483	0
1516	2832394	18542.959722220816	3000
1516	2875559	18842.959722220816	3000
1516	2914935	19142.959722220816	0
1516	2958104	19442.959722220816	0
1516	2997480	19742.959722220816	0
1516	3036856	20042.959722220816	0
1516	3076232	20342.959722220816	0
1516	3115608	20642.959722220816	0
1516	3154984	20942.959722220816	0
1516	3194360	21242.959722220816	0
1516	3233736	21542.959722220816	0
1516	3273114	21842.959722220816	0
