version 2
run DataCentricScenario_1-0-20121011-13:20:27-2932
attr configname DataCentricScenario_1
attr datetime 20121011-13:20:27
attr experiment DataCentricScenario_1
attr inifile DataCentric.ini
attr iterationvars ""
attr iterationvars2 $repetition=0
attr measurement ""
attr network DataCentricNet
attr processid 2932
attr repetition 0
attr replication #0
attr resultdir results
attr runnumber 0
attr seedset 0

vector 97  DataCentricNet.host[8].net  AdvertInterDepartureTimesVector  ETV
vector 9  DataCentricNet.host[0].net  AdvertInterDepartureTimesVector  ETV
vector 53  DataCentricNet.host[4].net  AdvertInterDepartureTimesVector  ETV
vector 1377  DataCentricNet.dataCentricNetworkMan  helloPacketFrequency  ETV
vector 1382  DataCentricNet.dataCentricNetworkMan  reinforcementPacketFrequency  ETV
vector 1384  DataCentricNet.dataCentricNetworkMan  breakagePacketFrequency  ETV
vector 64  DataCentricNet.host[5].net  AdvertInterDepartureTimesVector  ETV
vector 647  DataCentricNet.host[58].net  AdvertInterDepartureTimesVector  ETV
vector 1175  DataCentricNet.host[106].net  AdvertInterDepartureTimesVector  ETV
vector 1109  DataCentricNet.host[100].net  AdvertInterDepartureTimesVector  ETV
vector 515  DataCentricNet.host[46].net  AdvertInterDepartureTimesVector  ETV
vector 1351  DataCentricNet.host[122].net  AdvertInterDepartureTimesVector  ETV
vector 658  DataCentricNet.host[59].net  AdvertInterDepartureTimesVector  ETV
vector 504  DataCentricNet.host[45].net  AdvertInterDepartureTimesVector  ETV
vector 1098  DataCentricNet.host[99].net  AdvertInterDepartureTimesVector  ETV
vector 284  DataCentricNet.host[25].net  AdvertInterDepartureTimesVector  ETV
vector 1010  DataCentricNet.host[91].net  AdvertInterDepartureTimesVector  ETV
vector 614  DataCentricNet.host[55].net  AdvertInterDepartureTimesVector  ETV
vector 185  DataCentricNet.host[16].net  AdvertInterDepartureTimesVector  ETV
vector 174  DataCentricNet.host[15].net  AdvertInterDepartureTimesVector  ETV
vector 130  DataCentricNet.host[11].net  AdvertInterDepartureTimesVector  ETV
vector 1032  DataCentricNet.host[93].net  AdvertInterDepartureTimesVector  ETV
vector 724  DataCentricNet.host[65].net  AdvertInterDepartureTimesVector  ETV
vector 471  DataCentricNet.host[42].net  AdvertInterDepartureTimesVector  ETV
vector 801  DataCentricNet.host[72].net  AdvertInterDepartureTimesVector  ETV
vector 988  DataCentricNet.host[89].net  AdvertInterDepartureTimesVector  ETV
vector 405  DataCentricNet.host[36].net  AdvertInterDepartureTimesVector  ETV
vector 119  DataCentricNet.host[10].net  AdvertInterDepartureTimesVector  ETV
vector 262  DataCentricNet.host[23].net  AdvertInterDepartureTimesVector  ETV
vector 361  DataCentricNet.host[32].net  AdvertInterDepartureTimesVector  ETV
vector 1362  DataCentricNet.host[123].net  AdvertInterDepartureTimesVector  ETV
vector 548  DataCentricNet.host[49].net  AdvertInterDepartureTimesVector  ETV
vector 603  DataCentricNet.host[54].net  AdvertInterDepartureTimesVector  ETV
vector 1208  DataCentricNet.host[109].net  AdvertInterDepartureTimesVector  ETV
vector 42  DataCentricNet.host[3].net  AdvertInterDepartureTimesVector  ETV
vector 713  DataCentricNet.host[64].net  AdvertInterDepartureTimesVector  ETV
vector 999  DataCentricNet.host[90].net  AdvertInterDepartureTimesVector  ETV
vector 922  DataCentricNet.host[83].net  AdvertInterDepartureTimesVector  ETV
vector 636  DataCentricNet.host[57].net  AdvertInterDepartureTimesVector  ETV
vector 460  DataCentricNet.host[41].net  AdvertInterDepartureTimesVector  ETV
vector 944  DataCentricNet.host[85].net  AdvertInterDepartureTimesVector  ETV
vector 889  DataCentricNet.host[80].net  AdvertInterDepartureTimesVector  ETV
vector 1241  DataCentricNet.host[112].net  AdvertInterDepartureTimesVector  ETV
vector 86  DataCentricNet.host[7].net  AdvertInterDepartureTimesVector  ETV
vector 1065  DataCentricNet.host[96].net  AdvertInterDepartureTimesVector  ETV
vector 163  DataCentricNet.host[14].net  AdvertInterDepartureTimesVector  ETV
vector 20  DataCentricNet.host[1].net  AdvertInterDepartureTimesVector  ETV
vector 790  DataCentricNet.host[71].net  AdvertInterDepartureTimesVector  ETV
vector 1307  DataCentricNet.host[118].net  AdvertInterDepartureTimesVector  ETV
vector 878  DataCentricNet.host[79].net  AdvertInterDepartureTimesVector  ETV
vector 812  DataCentricNet.host[73].net  AdvertInterDepartureTimesVector  ETV
vector 295  DataCentricNet.host[26].net  AdvertInterDepartureTimesVector  ETV
vector 1021  DataCentricNet.host[92].net  AdvertInterDepartureTimesVector  ETV
vector 779  DataCentricNet.host[70].net  AdvertInterDepartureTimesVector  ETV
vector 240  DataCentricNet.host[21].net  AdvertInterDepartureTimesVector  ETV
vector 845  DataCentricNet.host[76].net  AdvertInterDepartureTimesVector  ETV
vector 1153  DataCentricNet.host[104].net  AdvertInterDepartureTimesVector  ETV
vector 306  DataCentricNet.host[27].net  AdvertInterDepartureTimesVector  ETV
vector 1285  DataCentricNet.host[116].net  AdvertInterDepartureTimesVector  ETV
vector 592  DataCentricNet.host[53].net  AdvertInterDepartureTimesVector  ETV
vector 746  DataCentricNet.host[67].net  AdvertInterDepartureTimesVector  ETV
vector 966  DataCentricNet.host[87].net  AdvertInterDepartureTimesVector  ETV
vector 867  DataCentricNet.host[78].net  AdvertInterDepartureTimesVector  ETV
vector 273  DataCentricNet.host[24].net  AdvertInterDepartureTimesVector  ETV
vector 1230  DataCentricNet.host[111].net  AdvertInterDepartureTimesVector  ETV
vector 757  DataCentricNet.host[68].net  AdvertInterDepartureTimesVector  ETV
vector 1087  DataCentricNet.host[98].net  AdvertInterDepartureTimesVector  ETV
vector 1296  DataCentricNet.host[117].net  AdvertInterDepartureTimesVector  ETV
vector 196  DataCentricNet.host[17].net  AdvertInterDepartureTimesVector  ETV
vector 141  DataCentricNet.host[12].net  AdvertInterDepartureTimesVector  ETV
vector 680  DataCentricNet.host[61].net  AdvertInterDepartureTimesVector  ETV
vector 394  DataCentricNet.host[35].net  AdvertInterDepartureTimesVector  ETV
vector 526  DataCentricNet.host[47].net  AdvertInterDepartureTimesVector  ETV
vector 31  DataCentricNet.host[2].net  AdvertInterDepartureTimesVector  ETV
vector 691  DataCentricNet.host[62].net  AdvertInterDepartureTimesVector  ETV
vector 1373  DataCentricNet.host[124].net  AdvertInterDepartureTimesVector  ETV
vector 625  DataCentricNet.host[56].net  AdvertInterDepartureTimesVector  ETV
vector 482  DataCentricNet.host[43].net  AdvertInterDepartureTimesVector  ETV
vector 1340  DataCentricNet.host[121].net  AdvertInterDepartureTimesVector  ETV
vector 1131  DataCentricNet.host[102].net  AdvertInterDepartureTimesVector  ETV
vector 339  DataCentricNet.host[30].net  AdvertInterDepartureTimesVector  ETV
vector 317  DataCentricNet.host[28].net  AdvertInterDepartureTimesVector  ETV
vector 1318  DataCentricNet.host[119].net  AdvertInterDepartureTimesVector  ETV
vector 493  DataCentricNet.host[44].net  AdvertInterDepartureTimesVector  ETV
vector 1197  DataCentricNet.host[108].net  AdvertInterDepartureTimesVector  ETV
vector 108  DataCentricNet.host[9].net  AdvertInterDepartureTimesVector  ETV
vector 911  DataCentricNet.host[82].net  AdvertInterDepartureTimesVector  ETV
vector 1219  DataCentricNet.host[110].net  AdvertInterDepartureTimesVector  ETV
vector 570  DataCentricNet.host[51].net  AdvertInterDepartureTimesVector  ETV
vector 537  DataCentricNet.host[48].net  AdvertInterDepartureTimesVector  ETV
vector 416  DataCentricNet.host[37].net  AdvertInterDepartureTimesVector  ETV
vector 856  DataCentricNet.host[77].net  AdvertInterDepartureTimesVector  ETV
vector 1142  DataCentricNet.host[103].net  AdvertInterDepartureTimesVector  ETV
vector 207  DataCentricNet.host[18].net  AdvertInterDepartureTimesVector  ETV
vector 251  DataCentricNet.host[22].net  AdvertInterDepartureTimesVector  ETV
vector 328  DataCentricNet.host[29].net  AdvertInterDepartureTimesVector  ETV
vector 1329  DataCentricNet.host[120].net  AdvertInterDepartureTimesVector  ETV
vector 372  DataCentricNet.host[33].net  AdvertInterDepartureTimesVector  ETV
vector 823  DataCentricNet.host[74].net  AdvertInterDepartureTimesVector  ETV
vector 152  DataCentricNet.host[13].net  AdvertInterDepartureTimesVector  ETV
vector 1054  DataCentricNet.host[95].net  AdvertInterDepartureTimesVector  ETV
vector 900  DataCentricNet.host[81].net  AdvertInterDepartureTimesVector  ETV
vector 768  DataCentricNet.host[69].net  AdvertInterDepartureTimesVector  ETV
vector 669  DataCentricNet.host[60].net  AdvertInterDepartureTimesVector  ETV
vector 977  DataCentricNet.host[88].net  AdvertInterDepartureTimesVector  ETV
vector 1120  DataCentricNet.host[101].net  AdvertInterDepartureTimesVector  ETV
vector 1274  DataCentricNet.host[115].net  AdvertInterDepartureTimesVector  ETV
vector 1252  DataCentricNet.host[113].net  AdvertInterDepartureTimesVector  ETV
vector 75  DataCentricNet.host[6].net  AdvertInterDepartureTimesVector  ETV
vector 1186  DataCentricNet.host[107].net  AdvertInterDepartureTimesVector  ETV
vector 955  DataCentricNet.host[86].net  AdvertInterDepartureTimesVector  ETV
vector 427  DataCentricNet.host[38].net  AdvertInterDepartureTimesVector  ETV
vector 834  DataCentricNet.host[75].net  AdvertInterDepartureTimesVector  ETV
vector 218  DataCentricNet.host[19].net  AdvertInterDepartureTimesVector  ETV
vector 438  DataCentricNet.host[39].net  AdvertInterDepartureTimesVector  ETV
vector 350  DataCentricNet.host[31].net  AdvertInterDepartureTimesVector  ETV
vector 229  DataCentricNet.host[20].net  AdvertInterDepartureTimesVector  ETV
vector 1043  DataCentricNet.host[94].net  AdvertInterDepartureTimesVector  ETV
vector 702  DataCentricNet.host[63].net  AdvertInterDepartureTimesVector  ETV
vector 1076  DataCentricNet.host[97].net  AdvertInterDepartureTimesVector  ETV
vector 1164  DataCentricNet.host[105].net  AdvertInterDepartureTimesVector  ETV
vector 559  DataCentricNet.host[50].net  AdvertInterDepartureTimesVector  ETV
vector 933  DataCentricNet.host[84].net  AdvertInterDepartureTimesVector  ETV
vector 735  DataCentricNet.host[66].net  AdvertInterDepartureTimesVector  ETV
vector 581  DataCentricNet.host[52].net  AdvertInterDepartureTimesVector  ETV
vector 1263  DataCentricNet.host[114].net  AdvertInterDepartureTimesVector  ETV
vector 449  DataCentricNet.host[40].net  AdvertInterDepartureTimesVector  ETV
vector 383  DataCentricNet.host[34].net  AdvertInterDepartureTimesVector  ETV
vector 1391  DataCentricNet.dataCentricNetworkMan  demandVector  ETV
9	1148	1.002284248447	0.002284248447
9	2884	1.004000175918	0.001715927471
9	32492	1.029640206801	0.025640030883
9	33516	1.030574210379	0.000934003578
9	69523	1.074865978225	0.044291767846
9	90344	1.103181167256	0.028315189031
9	96594	1.113132143104	0.009950975848
9	117988	1.142714582802	0.029582439698
20	33689	1.030574219565	0.002228145895
20	73952	1.079314256342	0.048740036777
20	102052	1.122632254014	0.043317997672
20	112502	1.135090196661	0.012457942647
31	44460	1.045187711725	0.008963979106
31	52227	1.053658352617	0.008470640892
31	90310	1.103181163718	0.049522811101
31	96639	1.113132149303	0.009950985585
31	112445	1.135090190211	0.021958040908
31	117970	1.142714579304	0.007624389093
31	138843	1.170442579304	0.027728
31	176521	1.226762682256	0.056320102952
31	245771	1.346309650693	0.119546968437
42	32483	1.02964020502	0.014230136286
42	33521	1.030574210761	0.000934005741
42	69529	1.074865978482	0.044291767721
42	90330	1.103181165488	0.028315187006
42	112475	1.135090192762	0.031909027274
42	117982	1.142714582477	0.007624389715
42	176449	1.2267626742	0.084048091723
53	1205	1.00228425183	0.00228425183
53	19380	1.013186325382	0.010902073552
53	20377	1.014228163457	0.001041838075
53	24207	1.018191302684	0.003963139227
53	24980	1.018927659429	0.000736356745
53	27028	1.021445163918	0.002517504489
53	33628	1.030574216262	0.009129052344
53	39957	1.040045249175	0.009471032913
53	49157	1.050112874232	0.010067625057
53	69604	1.074865982562	0.02475310833
53	74005	1.079314260391	0.004448277829
53	106321	1.128256726026	0.048942465635
53	118167	1.142714594897	0.014457868871
64	6379	1.006043712728	0.006043712728
64	17211	1.011043452147	0.004999739419
64	18151	1.011943555485	0.000900103338
64	20832	1.014377733741	0.002434178256
64	29859	1.025805629754	0.011427896013
64	31505	1.028010393357	0.002204763603
64	38067	1.037109203717	0.00909881036
64	69671	1.074865985633	0.037756781916
64	112600	1.135090206806	0.060224221173
75	118059	1.142714588237	0.005085585267
75	119122	1.143882444942	0.001167856705
75	128549	1.155402819091	0.011520374149
86	33650	1.03057421744	0.00222814422
86	73902	1.079314251103	0.048740033663
86	102071	1.12263225534	0.043318004237
86	112517	1.135090197372	0.012457942032
86	131386	1.158807851798	0.023717654426
86	164018	1.207990965083	0.049183113285
97	1136	1.002284247565	0.002284247565
97	2031	1.0032464528	0.000962205235
97	27056	1.02144516897	0.01819871617
97	33610	1.03057421548	0.00912904651
97	38865	1.038294851322	0.007720635842
97	39911	1.040045245946	0.001750394624
97	49202	1.050112877753	0.010067631807
97	69593	1.074865982262	0.024753104509
97	73955	1.079314256505	0.004448274243
97	102118	1.122632258305	0.0433180018
97	118114	1.142714591078	0.020082332773
108	49169	1.050112875358	0.006161137914
108	57793	1.061567783196	0.011454907838
108	74035	1.079314262002	0.017746478806
119	28890	1.02448410871	0.001801515421
119	29762	1.025805619969	0.001321511259
119	34139	1.031966534781	0.006160914812
119	52038	1.053481149864	0.021514615083
119	58006	1.061710534779	0.008229384915
119	69487	1.07486597585	0.013155441071
119	73289	1.078478038479	0.003612062629
119	198173	1.257208410502	0.178730372023
119	218430	1.290932869433	0.033724458931
130	25256	1.018971300568	0.004593566878
130	29800	1.025805625868	0.0068343253
130	33564	1.030574213189	0.004768587321
130	69599	1.074865982397	0.044291769208
130	78628	1.085654356721	0.010788374324
130	90351	1.103181168117	0.017526811396
130	96610	1.113132146247	0.00995097813
130	104904	1.126057781444	0.012925635197
130	112529	1.13509019826	0.009032416816
130	117979	1.142714581598	0.007624383338
130	174153	1.222404728531	0.079690146933
141	40000	1.040045251845	0.001750402068
141	49182	1.050112876375	0.01006762453
141	57772	1.061567781551	0.011454905176
141	69762	1.074865992183	0.013298210632
141	74023	1.079314261002	0.004448268819
141	76115	1.081518307501	0.002204046499
152	90289	1.10318116194	0.03762009719
152	102035	1.122632251139	0.019451089199
152	112466	1.135090192092	0.012457940953
152	120920	1.145802358941	0.010712166849
163	33666	1.030574218173	0.000934005226
163	52243	1.053658355239	0.023084137066
163	90277	1.103181159482	0.049522804243
163	112433	1.135090188059	0.031909028577
174	24502	1.018217727431	0.002807656179
174	25198	1.01897129428	0.000753566849
174	29816	1.025805626769	0.006834332489
174	33538	1.030574211458	0.004768584689
174	69558	1.074865980327	0.044291768869
174	75732	1.081172079553	0.006306099226
174	90307	1.103181163657	0.022009084104
174	96602	1.113132145362	0.009950981705
174	112469	1.135090192599	0.021958047237
185	24359	1.018191315565	0.00381358189
185	25300	1.018971305469	0.000779989904
185	29753	1.025805619391	0.006834313922
185	31443	1.028010388217	0.002204768826
185	48086	1.048662059254	0.020651671037
185	54136	1.056273181329	0.007611122075
185	68628	1.073990609513	0.017717428184
185	69538	1.074865978856	0.000875369343
185	75761	1.081172083337	0.006306104481
185	82711	1.091427720521	0.010255637184
185	90426	1.103181177127	0.011753456606
185	112587	1.135090205196	0.031909028069
196	39976	1.040045249923	0.0050202766
196	49112	1.050112869077	0.010067619154
196	69711	1.074865987295	0.024753118218
196	73999	1.079314260227	0.004448272932
207	52274	1.053658360019	0.017434628738
207	74012	1.079314260572	0.025655900553
207	90292	1.103181162067	0.023866901495
207	102047	1.122632253309	0.019451091242
207	112478	1.135090193013	0.012457939704
218	126623	1.15326056273	0.0038
218	143689	1.176280549546	0.023019986816
218	147899	1.182866098541	0.006585548995
218	227314	1.310539109087	0.127673010546
229	132227	1.160391210049	0.035396391065
240	39893	1.040045244199	0.005020271522
240	67811	1.072972748962	0.032927504763
240	69585	1.074865981941	0.001893232979
240	80354	1.087932748961	0.01306676702
240	83162	1.092372748961	0.00444
240	102099	1.122632257192	0.030259508231
240	118111	1.142714591019	0.020082333827
251	53589	1.055758128203	0.003113639885
251	57751	1.061567780023	0.00580965182
251	69684	1.074865986525	0.013298206502
251	74002	1.079314260384	0.004448273859
251	165917	1.210270201154	0.13095594077
262	28893	1.024484109416	0.001801514519
262	29756	1.025805619412	0.001321509996
262	69460	1.074865969625	0.049060350213
262	112539	1.135090200207	0.060224230582
262	118040	1.142714586332	0.007624386125
262	122709	1.148042707864	0.005328121532
262	198197	1.25720841211	0.109165704246
273	39925	1.040045246905	0.0050202767
273	49133	1.050112871572	0.010067624667
273	69668	1.074865985512	0.02475311394
273	73973	1.079314257436	0.004448271924
284	22502	1.016197378156	0.001819644312
284	24549	1.01821773445	0.002020356294
284	25272	1.018971302323	0.000753567873
284	29269	1.024856020497	0.005884718174
284	29865	1.025805629934	0.000949609437
284	52258	1.053658358026	0.027852728092
284	75726	1.08117207771	0.027513719684
284	90348	1.103181168009	0.022009090299
284	96660	1.113132150506	0.009950982497
284	112526	1.135090198022	0.021958047516
284	118004	1.142714583553	0.007624385531
284	159994	1.201592020493	0.05887743694
284	174150	1.222404728273	0.02081270778
295	39884	1.040045242215	0.005020271908
295	63081	1.067773242213	0.027727999998
295	69564	1.07486598069	0.007092738477
295	73890	1.079314248677	0.004448267987
295	80348	1.087932746685	0.008618498008
295	83156	1.092372746685	0.00444
295	102089	1.122632256495	0.03025950981
295	118093	1.142714589977	0.020082333482
306	39902	1.04004524549	0.005020280798
306	49220	1.05011287938	0.01006763389
306	69590	1.07486598223	0.02475310285
306	73933	1.079314255219	0.004448272989
306	102095	1.122632256676	0.043318001457
306	118087	1.142714589545	0.020082332869
317	49124	1.05011287041	0.003641130081
317	57757	1.061567780944	0.011454910534
317	69739	1.074865989889	0.013298208945
317	74015	1.079314260634	0.004448270745
328	73988	1.079314258721	0.04563343202
328	102075	1.122632255518	0.043317996797
328	112496	1.135090196036	0.012457940518
339	49118	1.050112870122	0.003641131174
339	57736	1.061567778897	0.011454908775
339	69701	1.07486598712	0.013298208223
339	73977	1.079314257805	0.004448270685
350	132221	1.1603912093	0.035396390297
361	28896	1.024484109563	0.001801514803
361	29721	1.025805617702	0.001321508139
361	33476	1.030574202894	0.004768585192
361	69466	1.074865971421	0.044291768527
361	118029	1.142714585614	0.067848614193
361	122700	1.148042706408	0.005328120794
361	191390	1.248386706406	0.100343999998
361	198194	1.257208411973	0.008821705567
372	88616	1.101134539487	0.069167999997
372	122729	1.14804270978	0.046908170293
372	200575	1.261354709778	0.113311999998
372	205719	1.268634709778	0.00728
372	218472	1.290932874142	0.022298164364
372	307800	1.490862202647	0.199929328505
383	188836	1.24482008146	0.096777371134
383	205728	1.268634710324	0.023814628864
394	40060	1.040045255522	0.001750403909
394	49237	1.05011288029	0.010067624768
394	74041	1.079314262956	0.029201382666
405	28881	1.024484108427	0.001801515577
405	29732	1.025805618186	0.001321509759
405	31434	1.028010384769	0.002204766583
405	69469	1.074865972202	0.046855587433
405	73280	1.078478037964	0.003612065762
405	112571	1.135090203161	0.056612165197
405	198170	1.257208410063	0.122118206902
405	218436	1.290932869792	0.033724459729
416	50020	1.051234732179	0.017553905059
416	73985	1.07931425861	0.028079526431
416	102092	1.122632256509	0.043317997899
416	112506	1.135090196724	0.012457940215
427	119125	1.143882445182	0.00625344202
427	132263	1.160391213447	0.016508768265
438	128524	1.155402815552	0.027146092197
438	132212	1.160391205972	0.00498839042
449	153285	1.190609852822	0.03256059887
449	161486	1.20420109382	0.013591240998
449	185597	1.240137232117	0.035936138297
449	262201	1.374517278869	0.134380046752
449	273887	1.399134366102	0.024617087233
460	33554	1.0305742123	0.000934005892
460	90325	1.103181164937	0.072606952637
460	112457	1.135090191818	0.031909026881
460	117999	1.142714583526	0.007624391708
460	176455	1.226762675588	0.084048092062
471	25293	1.018971304844	0.004593569735
471	28021	1.022682587587	0.003711282743
471	29770	1.025805622648	0.003123035061
471	31440	1.02801038621	0.002204763562
471	47019	1.047731206402	0.019720820192
471	54133	1.056273181007	0.008541974605
471	64661	1.069531717474	0.013258536467
471	69511	1.074865977886	0.005334260412
471	90429	1.103181177278	0.028315199392
471	112576	1.135090203746	0.031909026468
471	198140	1.2572084048	0.122118201054
482	46769	1.047728925136	0.009434079976
482	49262	1.050112883004	0.002383957868
482	73942	1.079314255646	0.029201372642
482	102157	1.122632263179	0.043318007533
493	49160	1.050112874983	0.006161134168
493	57805	1.061567784754	0.011454909771
493	74055	1.079314264161	0.017746479407
493	117182	1.141794831023	0.062480566862
504	22458	1.016197371922	0.000787298127
504	24491	1.018217725254	0.002020353332
504	25189	1.018971293951	0.000753568697
504	33600	1.030574214984	0.011602921033
504	90280	1.103181160047	0.072606945063
504	96632	1.113132148808	0.009950988761
504	112442	1.135090189742	0.021958040934
504	117973	1.142714579337	0.007624389595
515	6400	1.006043719434	0.00306073032
515	17231	1.011043455026	0.004999735592
515	18162	1.011943558287	0.000900103261
515	29862	1.02580562989	0.013862071603
515	30567	1.026849174108	0.001043544218
515	31534	1.028010397455	0.001161223347
515	38050	1.037109200254	0.009098802799
515	52325	1.053658367387	0.016549167133
515	69727	1.074865988212	0.021207620825
515	75766	1.081172083827	0.006306095615
515	90435	1.103181177702	0.022009093875
515	112606	1.135090207061	0.031909029359
526	41175	1.04137196179	0.003077113789
526	42166	1.042660909251	0.001288947461
526	49267	1.050112883187	0.007451973936
526	73908	1.079314252025	0.029201368838
526	102121	1.12263225855	0.043318006525
526	112542	1.135090200343	0.012457941793
526	131389	1.158807852471	0.023717652128
537	49243	1.050112880746	0.006161142321
537	73025	1.078455460866	0.02834258012
537	74059	1.07931426465	0.000858803784
537	84302	1.093960336709	0.014646072059
537	113356	1.136392002629	0.04243166592
537	148855	1.183897515657	0.047505513028
537	208924	1.273977515656	0.090079999999
537	247145	1.348830237676	0.07485272202
548	29797	1.025805625661	0.00312303009
548	33490	1.030574206974	0.004768581313
548	69481	1.074865975291	0.044291768317
548	90359	1.103181169715	0.028315194424
548	112487	1.135090194512	0.031909024797
548	117994	1.142714583418	0.007624388906
559	143722	1.17628055258	0.004475275904
559	166564	1.211494711989	0.035214159409
559	192528	1.250470118493	0.038975406504
559	227335	1.310539111704	0.060068993211
559	262183	1.374517276675	0.063978164971
570	49231	1.050112880071	0.006161140688
570	72980	1.078455457511	0.02834257744
570	74031	1.079314261957	0.000858804446
570	110184	1.133144820738	0.053830558781
581	147875	1.182866096634	0.004210469345
581	227317	1.31053910923	0.127673012596
592	39908	1.040045245896	0.005020278501
592	49196	1.050112877016	0.01006763112
592	69676	1.074865985905	0.024753108889
592	73945	1.079314255834	0.004448269929
592	102142	1.122632261707	0.043318005873
592	118164	1.142714594699	0.020082332992
603	29875	1.025805630211	0.003123035896
603	52270	1.053658359143	0.027852728932
603	52768	1.054702034047	0.001043674904
603	69580	1.074865981564	0.020163947517
603	73255	1.078478034047	0.003612052483
603	82723	1.091427722417	0.01294968837
603	90362	1.103181169957	0.01175344754
603	112493	1.135090195131	0.031909025174
614	24347	1.018191313866	0.003813578623
614	25265	1.018971301983	0.000779988117
614	29738	1.025805618348	0.006834316365
614	31446	1.028010388249	0.002204769901
614	69493	1.074865975969	0.04685558772
614	73270	1.078478037039	0.00361206107
614	75750	1.081172082	0.002694044961
614	82720	1.091427722086	0.010255640086
614	90399	1.103181174421	0.011753452335
614	112554	1.135090202254	0.031909027833
625	44490	1.045187712537	0.008963979423
625	52231	1.053658353925	0.008470641388
625	56076	1.059152439401	0.005494085476
625	90318	1.103181164345	0.044028724944
625	96673	1.113132151179	0.009950986834
625	112439	1.135090189368	0.021958038189
625	117976	1.142714581313	0.007624391945
625	176552	1.226762683068	0.084048101755
625	251732	1.355857596242	0.129094913174
636	33543	1.030574211851	0.015164144299
636	69547	1.074865979413	0.044291767562
636	96591	1.113132143057	0.038266163644
636	118032	1.142714585889	0.029582442832
647	6382	1.006043714608	0.003060729698
647	17208	1.011043452082	0.004999737474
647	18991	1.012790602813	0.001747150731
647	25322	1.018971308439	0.006180705626
647	29833	1.025805627447	0.006834319008
647	31502	1.02801039306	0.002204765613
647	64650	1.069531714606	0.041521321546
647	69647	1.074865984523	0.005334269917
647	75769	1.081172083945	0.006306099422
647	90432	1.103181177637	0.022009093692
647	112591	1.135090205535	0.031909027898
658	17201	1.011043451172	0.008060468746
658	18988	1.012790600329	0.001747149157
658	25325	1.018971308667	0.006180708338
658	29842	1.025805628271	0.006834319604
658	31489	1.028010391999	0.002204763728
658	69637	1.074865984033	0.046855592034
658	90444	1.103181178773	0.02831519474
658	112595	1.135090205679	0.031909026906
669	117123	1.141794824041	0.013538103185
669	132281	1.160391214254	0.018596390213
680	40008	1.040045252265	0.001750402057
680	49188	1.050112876745	0.01006762448
680	57781	1.061567782731	0.011454905986
680	74009	1.079314260533	0.017746477802
691	44470	1.045187711941	0.008963981296
691	52234	1.053658354154	0.008470642213
691	90286	1.103181161405	0.049522807251
702	132242	1.160391211369	0.032134490364
713	33508	1.030574209596	0.00093400066
713	69496	1.074865976071	0.044291766475
713	101216	1.121301648323	0.046435672252
713	118045	1.142714587343	0.02141293902
713	164003	1.207990964036	0.065276376693
713	176467	1.226762678116	0.01877171408
724	25287	1.018971304576	0.004593572221
724	29781	1.02580562391	0.006834319334
724	31460	1.028010389056	0.002204765146
724	54127	1.056273178613	0.028262789557
724	64653	1.069531716063	0.01325853745
724	69550	1.074865979595	0.005334263532
724	75755	1.081172082817	0.006306103222
724	90415	1.103181175651	0.022009092834
724	112564	1.135090202691	0.03190902704
735	144520	1.177597124411	0.019547877448
735	161465	1.204201086831	0.02660396242
735	273881	1.39913436531	0.194933278479
746	39914	1.040045246029	0.005020278122
746	49148	1.050112872669	0.01006762664
746	69631	1.074865983784	0.024753111115
746	73964	1.079314257085	0.004448273301
746	102150	1.122632262847	0.043318005762
746	118172	1.142714595712	0.020082332865
757	39935	1.040045247741	0.005020278412
757	49205	1.050112877875	0.010067630134
757	69724	1.074865988063	0.024753110188
757	73970	1.079314257168	0.004448269105
757	102163	1.122632263376	0.043318006208
768	114378	1.137628995043	0.009372271464
768	128521	1.155402814089	0.017773819046
779	39890	1.040045242562	0.005020276303
779	49175	1.050112875906	0.010067633344
779	69555	1.074865979986	0.02475310408
779	73918	1.07931425351	0.004448273524
779	102106	1.122632257788	0.043318004278
779	118104	1.142714590745	0.020082332957
790	33701	1.030574220332	0.000934007683
790	59413	1.063911927502	0.03333770717
790	73928	1.079314254785	0.015402327283
790	102081	1.122632255779	0.043318000994
790	112514	1.135090197258	0.012457941479
801	25297	1.018971305373	0.004593576897
801	29811	1.025805626677	0.006834321304
801	69640	1.074865984372	0.049060357695
801	75729	1.081172078561	0.006306094189
801	78604	1.085654351507	0.004482272946
801	90381	1.10318117301	0.017526821503
801	104880	1.12605777623	0.02287660322
801	112561	1.135090202563	0.009032426333
812	39881	1.040045241997	0.005020272602
812	63078	1.067773241995	0.027727999998
812	67243	1.071883502746	0.004110260751
812	69573	1.074865981009	0.002982478263
812	73893	1.079314249514	0.004448268505
812	102086	1.122632256457	0.043318006943
812	118090	1.142714589829	0.020082333372
823	90283	1.103181160371	0.037620095168
823	102030	1.122632250408	0.019451090037
823	112472	1.135090192754	0.012457942346
823	114959	1.138341160371	0.003250967617
823	120915	1.145802358034	0.007461197663
834	119155	1.143882446375	0.01196780304
834	130798	1.158049251329	0.014166804954
834	132293	1.16039121464	0.002341963311
845	39896	1.040045245277	0.005020272636
845	42163	1.042660907914	0.002615662637
845	49224	1.050112879852	0.007451971938
845	73896	1.079314249941	0.029201370089
845	102129	1.122632259473	0.043318009532
856	52237	1.053658354216	0.017434621777
856	90295	1.103181162441	0.049522808225
856	112430	1.135090186424	0.031909023983
867	39920	1.040045246169	0.00502028056
867	49166	1.050112875325	0.010067629156
867	69634	1.074865983921	0.024753108596
867	73967	1.07931425713	0.004448273209
867	102139	1.122632261368	0.043318004238
867	118158	1.142714594174	0.020082332806
878	37434	1.036223731138	0.002542903385
878	73991	1.079314259077	0.043090527939
878	102063	1.122632254901	0.043317995824
878	112490	1.135090195077	0.012457940176
878	157727	1.197971735279	0.062881540202
878	226808	1.309386755377	0.111415020098
889	33584	1.030574214436	0.000934007172
889	90301	1.103181163197	0.072606948761
889	112463	1.135090191964	0.031909028767
889	118007	1.142714583841	0.007624391877
889	176461	1.226762676444	0.084048092603
900	90333	1.103181166226	0.044028724015
900	112460	1.135090191947	0.031909025721
900	138880	1.17044258399	0.035352392043
900	183608	1.237961105247	0.067518521257
900	227903	1.311937105245	0.073975999998
900	251741	1.355857599052	0.043920493807
900	254151	1.360553105243	0.004695506191
900	282864	1.416865105242	0.056311999999
911	49179	1.050112876071	0.015087907337
911	67246	1.071883502915	0.021770626844
911	69567	1.074865980832	0.002982477917
911	73899	1.079314250815	0.004448269983