version 2
run DataCentricScenario_4-0-20121020-01:40:41-3288
attr configname DataCentricScenario_4
attr datetime 20121020-01:40:41
attr experiment DataCentricScenario_4
attr inifile DataCentric.ini
attr iterationvars ""
attr iterationvars2 $repetition=0
attr measurement ""
attr network DataCentricNet
attr processid 3288
attr repetition 0
attr replication #0
attr resultdir results
attr runnumber 0
attr seedset 0

vector 1377  DataCentricNet.dataCentricNetworkMan  helloPacketFrequency  ETV
vector 1382  DataCentricNet.dataCentricNetworkMan  reinforcementPacketFrequency  ETV
vector 1384  DataCentricNet.dataCentricNetworkMan  breakagePacketFrequency  ETV
1377	5691	1.005	125
1377	16662	1.01	0
1377	21577	1.015	0
1377	26227	1.02	0
1377	29122	1.025	0
1377	33313	1.03	0
1377	36767	1.035	0
1377	42044	1.04	0
1377	46964	1.045	0
1377	52076	1.05	0
1377	56790	1.055	0
1377	63559	1.06	0
1377	67858	1.065	0
1377	73062	1.07	0
1377	77499	1.075	0
1377	81260	1.08	0
1377	85289	1.085	0
1377	88692	1.09	0
1377	93398	1.095	0
1377	97201	1.1	0
1377	100621	1.105	0
1377	106493	1.11	0
1377	110267	1.115104820645	0
1377	113773	1.120104820645	0
1377	117964	1.125104820645	0
1377	121581	1.130104820645	0
1377	126557	1.135104820645	0
1377	130735	1.140104820645	0
1377	134664	1.145104820645	0
1377	140887	1.152309030261	0
1377	144161	1.157309030261	0
1377	147236	1.162309030261	0
1377	150657	1.167309030261	0
1377	154905	1.172309030261	0
1377	158578	1.177309030261	0
1377	162440	1.182309030261	0
1377	165674	1.187309030261	0
1377	169932	1.192309030261	0
1377	173748	1.197309030261	0
1377	177761	1.202309030261	0
1377	187673	1.216982175891	0
1377	190743	1.221982175891	0
1377	193820	1.226982175891	0
1377	197724	1.232620712416	0
1377	201205	1.237620712416	0
1377	213279	1.255556712416	0
1377	216036	1.260556712416	0
1377	223609	1.272109754388	0
1377	226952	1.277109754388	0
1377	233735	1.286499230517	0
1377	237783	1.291499230517	0
1377	241746	1.296499230517	0
1377	252102	1.312981866431	0
1377	254962	1.317981866431	0
1377	270797	1.345943191686	0
1377	274236	1.350943191686	0
1377	277280	1.355943191686	0
1377	279467	1.360943191686	0
1377	336109	1.553162057436	0
1377	336766	1.558162057436	0
1377	337472	1.563162057436	0
1377	338226	1.568162057436	0
1382	5691	1.005	0
1382	16662	1.01	0
1382	21577	1.015	0
1382	26227	1.02	0
1382	29122	1.025	0
1382	33313	1.03	0
1382	36767	1.035	0
1382	42044	1.04	0
1382	46964	1.045	0
1382	52076	1.05	0
1382	56790	1.055	0
1382	63559	1.06	0
1382	67858	1.065	0
1382	73062	1.07	0
1382	77499	1.075	0
1382	81260	1.08	0
1382	85289	1.085	0
1382	88692	1.09	0
1382	93398	1.095	0
1382	97201	1.1	0
1382	100621	1.105	0
1382	106493	1.11	0
1382	110267	1.115104820645	0
1382	113773	1.120104820645	0
1382	117964	1.125104820645	0
1382	121581	1.130104820645	0
1382	126557	1.135104820645	0
1382	130735	1.140104820645	0
1382	134664	1.145104820645	0
1382	140887	1.152309030261	0
1382	144161	1.157309030261	0
1382	147236	1.162309030261	0
1382	150657	1.167309030261	0
1382	154905	1.172309030261	0
1382	158578	1.177309030261	0
1382	162440	1.182309030261	0
1382	165674	1.187309030261	0
1382	169932	1.192309030261	0
1382	173748	1.197309030261	0
1382	177761	1.202309030261	0
1382	187673	1.216982175891	0
1382	190743	1.221982175891	0
1382	193820	1.226982175891	0
1382	197724	1.232620712416	0
1382	201205	1.237620712416	0
1382	213279	1.255556712416	0
1382	216036	1.260556712416	0
1382	223609	1.272109754388	0
1382	226952	1.277109754388	0
1382	233735	1.286499230517	0
1382	237783	1.291499230517	0
1382	241746	1.296499230517	0
1382	252102	1.312981866431	0
1382	254962	1.317981866431	0
1382	270797	1.345943191686	0
1382	274236	1.350943191686	0
1382	277280	1.355943191686	0
1382	279467	1.360943191686	0
1382	336109	1.553162057436	0
1382	336766	1.558162057436	0
1382	337472	1.563162057436	0
1382	338226	1.568162057436	0
1384	5691	1.005	0
1384	16662	1.01	0
1384	21577	1.015	0
1384	26227	1.02	0
1384	29122	1.025	0
1384	33313	1.03	0
1384	36767	1.035	0
1384	42044	1.04	0
1384	46964	1.045	0
1384	52076	1.05	0
1384	56790	1.055	0
1384	63559	1.06	0
1384	67858	1.065	0
1384	73062	1.07	0
1384	77499	1.075	0
1384	81260	1.08	0
1384	85289	1.085	0
1384	88692	1.09	0
1384	93398	1.095	0
1384	97201	1.1	0
1384	100621	1.105	0
1384	106493	1.11	0
1384	110267	1.115104820645	0
1384	113773	1.120104820645	0
1384	117964	1.125104820645	0
1384	121581	1.130104820645	0
1384	126557	1.135104820645	0
1384	130735	1.140104820645	0
1384	134664	1.145104820645	0
1384	140887	1.152309030261	0
1384	144161	1.157309030261	0
1384	147236	1.162309030261	0
1384	150657	1.167309030261	0
1384	154905	1.172309030261	0
1384	158578	1.177309030261	0
1384	162440	1.182309030261	0
1384	165674	1.187309030261	0
1384	169932	1.192309030261	0
1384	173748	1.197309030261	0
1384	177761	1.202309030261	0
1384	187673	1.216982175891	0
1384	190743	1.221982175891	0
1384	193820	1.226982175891	0
1384	197724	1.232620712416	0
1384	201205	1.237620712416	0
1384	213279	1.255556712416	0
1384	216036	1.260556712416	0
1384	223609	1.272109754388	0
1384	226952	1.277109754388	0
1384	233735	1.286499230517	0
1384	237783	1.291499230517	0
1384	241746	1.296499230517	0
1384	252102	1.312981866431	0
1384	254962	1.317981866431	0
1384	270797	1.345943191686	0
1384	274236	1.350943191686	0
1384	277280	1.355943191686	0
1384	279467	1.360943191686	0
1384	336109	1.553162057436	0
1384	336766	1.558162057436	0
1384	337472	1.563162057436	0
1384	338226	1.568162057436	0
