file 294144 1345676128                                          
version 2
run General-0-20120822-23:52:59-3748
attr configname General
attr datetime 20120822-23:52:59
attr experiment General
attr inifile omnetpp.ini
attr iterationvars ""
attr iterationvars2 $repetition=0
attr measurement ""
attr network DataCentricNet
attr processid 3748
attr repetition 0
attr replication #0
attr resultdir results
attr runnumber 0
attr seedset 0

vector 9  DataCentricNet.host[0].net  StabilityVector  ETV
vector 19  DataCentricNet.host[1].net  StabilityVector  ETV
vector 29  DataCentricNet.host[2].net  StabilityVector  ETV
vector 39  DataCentricNet.host[3].net  StabilityVector  ETV
vector 49  DataCentricNet.host[4].net  StabilityVector  ETV
vector 59  DataCentricNet.host[5].net  StabilityVector  ETV
vector 69  DataCentricNet.host[6].net  StabilityVector  ETV
vector 79  DataCentricNet.host[7].net  StabilityVector  ETV
vector 89  DataCentricNet.host[8].net  StabilityVector  ETV
vector 99  DataCentricNet.host[9].net  StabilityVector  ETV
vector 109  DataCentricNet.host[10].net  StabilityVector  ETV
vector 119  DataCentricNet.host[11].net  StabilityVector  ETV
vector 129  DataCentricNet.host[12].net  StabilityVector  ETV
vector 139  DataCentricNet.host[13].net  StabilityVector  ETV
vector 149  DataCentricNet.host[14].net  StabilityVector  ETV
vector 159  DataCentricNet.host[15].net  StabilityVector  ETV
vector 169  DataCentricNet.host[16].net  StabilityVector  ETV
vector 179  DataCentricNet.host[17].net  StabilityVector  ETV
vector 189  DataCentricNet.host[18].net  StabilityVector  ETV
vector 199  DataCentricNet.host[19].net  StabilityVector  ETV
vector 209  DataCentricNet.host[20].net  StabilityVector  ETV
vector 219  DataCentricNet.host[21].net  StabilityVector  ETV
vector 229  DataCentricNet.host[22].net  StabilityVector  ETV
vector 239  DataCentricNet.host[23].net  StabilityVector  ETV
vector 249  DataCentricNet.host[24].net  StabilityVector  ETV
vector 259  DataCentricNet.host[25].net  StabilityVector  ETV
vector 269  DataCentricNet.host[26].net  StabilityVector  ETV
vector 279  DataCentricNet.host[27].net  StabilityVector  ETV
vector 289  DataCentricNet.host[28].net  StabilityVector  ETV
vector 299  DataCentricNet.host[29].net  StabilityVector  ETV
vector 309  DataCentricNet.host[30].net  StabilityVector  ETV
vector 319  DataCentricNet.host[31].net  StabilityVector  ETV
vector 329  DataCentricNet.host[32].net  StabilityVector  ETV
vector 339  DataCentricNet.host[33].net  StabilityVector  ETV
vector 349  DataCentricNet.host[34].net  StabilityVector  ETV
vector 359  DataCentricNet.host[35].net  StabilityVector  ETV
vector 369  DataCentricNet.host[36].net  StabilityVector  ETV
vector 379  DataCentricNet.host[37].net  StabilityVector  ETV
vector 389  DataCentricNet.host[38].net  StabilityVector  ETV
vector 399  DataCentricNet.host[39].net  StabilityVector  ETV
vector 409  DataCentricNet.host[40].net  StabilityVector  ETV
vector 419  DataCentricNet.host[41].net  StabilityVector  ETV
vector 429  DataCentricNet.host[42].net  StabilityVector  ETV
vector 439  DataCentricNet.host[43].net  StabilityVector  ETV
vector 449  DataCentricNet.host[44].net  StabilityVector  ETV
vector 459  DataCentricNet.host[45].net  StabilityVector  ETV
vector 469  DataCentricNet.host[46].net  StabilityVector  ETV
vector 479  DataCentricNet.host[47].net  StabilityVector  ETV
vector 489  DataCentricNet.host[48].net  StabilityVector  ETV
vector 499  DataCentricNet.host[49].net  StabilityVector  ETV
vector 509  DataCentricNet.host[50].net  StabilityVector  ETV
vector 519  DataCentricNet.host[51].net  StabilityVector  ETV
vector 529  DataCentricNet.host[52].net  StabilityVector  ETV
vector 539  DataCentricNet.host[53].net  StabilityVector  ETV
vector 549  DataCentricNet.host[54].net  StabilityVector  ETV
vector 559  DataCentricNet.host[55].net  StabilityVector  ETV
vector 569  DataCentricNet.host[56].net  StabilityVector  ETV
vector 579  DataCentricNet.host[57].net  StabilityVector  ETV
vector 589  DataCentricNet.host[58].net  StabilityVector  ETV
vector 599  DataCentricNet.host[59].net  StabilityVector  ETV
vector 609  DataCentricNet.host[60].net  StabilityVector  ETV
vector 619  DataCentricNet.host[61].net  StabilityVector  ETV
vector 629  DataCentricNet.host[62].net  StabilityVector  ETV
vector 639  DataCentricNet.host[63].net  StabilityVector  ETV
vector 649  DataCentricNet.host[64].net  StabilityVector  ETV
vector 659  DataCentricNet.host[65].net  StabilityVector  ETV
vector 669  DataCentricNet.host[66].net  StabilityVector  ETV
vector 679  DataCentricNet.host[67].net  StabilityVector  ETV
vector 689  DataCentricNet.host[68].net  StabilityVector  ETV
vector 699  DataCentricNet.host[69].net  StabilityVector  ETV
vector 709  DataCentricNet.host[70].net  StabilityVector  ETV
vector 719  DataCentricNet.host[71].net  StabilityVector  ETV
vector 729  DataCentricNet.host[72].net  StabilityVector  ETV
vector 739  DataCentricNet.host[73].net  StabilityVector  ETV
vector 749  DataCentricNet.host[74].net  StabilityVector  ETV
vector 759  DataCentricNet.host[75].net  StabilityVector  ETV
vector 769  DataCentricNet.host[76].net  StabilityVector  ETV
vector 779  DataCentricNet.host[77].net  StabilityVector  ETV
vector 789  DataCentricNet.host[78].net  StabilityVector  ETV
vector 799  DataCentricNet.host[79].net  StabilityVector  ETV
vector 809  DataCentricNet.host[80].net  StabilityVector  ETV
vector 819  DataCentricNet.host[81].net  StabilityVector  ETV
vector 829  DataCentricNet.host[82].net  StabilityVector  ETV
vector 839  DataCentricNet.host[83].net  StabilityVector  ETV
vector 849  DataCentricNet.host[84].net  StabilityVector  ETV
vector 859  DataCentricNet.host[85].net  StabilityVector  ETV
vector 869  DataCentricNet.host[86].net  StabilityVector  ETV
vector 879  DataCentricNet.host[87].net  StabilityVector  ETV
vector 889  DataCentricNet.host[88].net  StabilityVector  ETV
vector 899  DataCentricNet.host[89].net  StabilityVector  ETV
vector 909  DataCentricNet.host[90].net  StabilityVector  ETV
vector 919  DataCentricNet.host[91].net  StabilityVector  ETV
vector 929  DataCentricNet.host[92].net  StabilityVector  ETV
vector 939  DataCentricNet.host[93].net  StabilityVector  ETV
vector 949  DataCentricNet.host[94].net  StabilityVector  ETV
vector 959  DataCentricNet.host[95].net  StabilityVector  ETV
vector 969  DataCentricNet.host[96].net  StabilityVector  ETV
vector 979  DataCentricNet.host[97].net  StabilityVector  ETV
vector 989  DataCentricNet.host[98].net  StabilityVector  ETV
vector 999  DataCentricNet.host[99].net  StabilityVector  ETV
vector 1009  DataCentricNet.host[100].net  StabilityVector  ETV
vector 1019  DataCentricNet.host[101].net  StabilityVector  ETV
vector 1029  DataCentricNet.host[102].net  StabilityVector  ETV
vector 1039  DataCentricNet.host[103].net  StabilityVector  ETV
vector 1049  DataCentricNet.host[104].net  StabilityVector  ETV
vector 1059  DataCentricNet.host[105].net  StabilityVector  ETV
vector 1069  DataCentricNet.host[106].net  StabilityVector  ETV
vector 1079  DataCentricNet.host[107].net  StabilityVector  ETV
vector 1089  DataCentricNet.host[108].net  StabilityVector  ETV
vector 1099  DataCentricNet.host[109].net  StabilityVector  ETV
vector 1109  DataCentricNet.host[110].net  StabilityVector  ETV
vector 1119  DataCentricNet.host[111].net  StabilityVector  ETV
vector 1129  DataCentricNet.host[112].net  StabilityVector  ETV
vector 1139  DataCentricNet.host[113].net  StabilityVector  ETV
vector 1149  DataCentricNet.host[114].net  StabilityVector  ETV
vector 1159  DataCentricNet.host[115].net  StabilityVector  ETV
vector 1169  DataCentricNet.host[116].net  StabilityVector  ETV
vector 1179  DataCentricNet.host[117].net  StabilityVector  ETV
vector 1189  DataCentricNet.host[118].net  StabilityVector  ETV
vector 1199  DataCentricNet.host[119].net  StabilityVector  ETV
vector 1209  DataCentricNet.host[120].net  StabilityVector  ETV
vector 1219  DataCentricNet.host[121].net  StabilityVector  ETV
vector 1229  DataCentricNet.host[122].net  StabilityVector  ETV
vector 1239  DataCentricNet.host[123].net  StabilityVector  ETV
vector 1249  DataCentricNet.host[124].net  StabilityVector  ETV
vector 1252  DataCentricNet.dataCentricNetworkMan  helloPacketFrequency  ETV
vector 1257  DataCentricNet.dataCentricNetworkMan  reinforcementPacketFrequency  ETV
vector 1259  DataCentricNet.dataCentricNetworkMan  breakagePacketFrequency  ETV
vector 58  DataCentricNet.host[5].net  InterestInterDepartureTimesVector  ETV
vector 28  DataCentricNet.host[2].net  InterestInterDepartureTimesVector  ETV
vector 158  DataCentricNet.host[15].net  InterestInterDepartureTimesVector  ETV
vector 568  DataCentricNet.host[56].net  InterestInterDepartureTimesVector  ETV
vector 818  DataCentricNet.host[81].net  InterestInterDepartureTimesVector  ETV
vector 258  DataCentricNet.host[25].net  InterestInterDepartureTimesVector  ETV
vector 998  DataCentricNet.host[99].net  InterestInterDepartureTimesVector  ETV
vector 118  DataCentricNet.host[11].net  InterestInterDepartureTimesVector  ETV
vector 548  DataCentricNet.host[54].net  InterestInterDepartureTimesVector  ETV
vector 498  DataCentricNet.host[49].net  InterestInterDepartureTimesVector  ETV
vector 728  DataCentricNet.host[72].net  InterestInterDepartureTimesVector  ETV
vector 1098  DataCentricNet.host[109].net  InterestInterDepartureTimesVector  ETV
vector 938  DataCentricNet.host[93].net  InterestInterDepartureTimesVector  ETV
vector 658  DataCentricNet.host[65].net  InterestInterDepartureTimesVector  ETV
vector 1228  DataCentricNet.host[122].net  InterestInterDepartureTimesVector  ETV
vector 558  DataCentricNet.host[55].net  InterestInterDepartureTimesVector  ETV
vector 1008  DataCentricNet.host[100].net  InterestInterDepartureTimesVector  ETV
vector 588  DataCentricNet.host[58].net  InterestInterDepartureTimesVector  ETV
vector 428  DataCentricNet.host[42].net  InterestInterDepartureTimesVector  ETV
vector 168  DataCentricNet.host[16].net  InterestInterDepartureTimesVector  ETV
vector 598  DataCentricNet.host[59].net  InterestInterDepartureTimesVector  ETV
vector 1068  DataCentricNet.host[106].net  InterestInterDepartureTimesVector  ETV
vector 468  DataCentricNet.host[46].net  InterestInterDepartureTimesVector  ETV
vector 368  DataCentricNet.host[36].net  InterestInterDepartureTimesVector  ETV
vector 108  DataCentricNet.host[10].net  InterestInterDepartureTimesVector  ETV
vector 1248  DataCentricNet.host[124].net  InterestInterDepartureTimesVector  ETV
vector 918  DataCentricNet.host[91].net  InterestInterDepartureTimesVector  ETV
vector 838  DataCentricNet.host[83].net  InterestInterDepartureTimesVector  ETV
vector 648  DataCentricNet.host[64].net  InterestInterDepartureTimesVector  ETV
vector 38  DataCentricNet.host[3].net  InterestInterDepartureTimesVector  ETV
vector 418  DataCentricNet.host[41].net  InterestInterDepartureTimesVector  ETV
vector 808  DataCentricNet.host[80].net  InterestInterDepartureTimesVector  ETV
vector 858  DataCentricNet.host[85].net  InterestInterDepartureTimesVector  ETV
vector 1128  DataCentricNet.host[112].net  InterestInterDepartureTimesVector  ETV
vector 458  DataCentricNet.host[45].net  InterestInterDepartureTimesVector  ETV
vector 148  DataCentricNet.host[14].net  InterestInterDepartureTimesVector  ETV
vector 628  DataCentricNet.host[62].net  InterestInterDepartureTimesVector  ETV
vector 778  DataCentricNet.host[77].net  InterestInterDepartureTimesVector  ETV
vector 188  DataCentricNet.host[18].net  InterestInterDepartureTimesVector  ETV
vector 238  DataCentricNet.host[23].net  InterestInterDepartureTimesVector  ETV
vector 328  DataCentricNet.host[32].net  InterestInterDepartureTimesVector  ETV
vector 138  DataCentricNet.host[13].net  InterestInterDepartureTimesVector  ETV
vector 958  DataCentricNet.host[95].net  InterestInterDepartureTimesVector  ETV
vector 908  DataCentricNet.host[90].net  InterestInterDepartureTimesVector  ETV
vector 78  DataCentricNet.host[7].net  InterestInterDepartureTimesVector  ETV
vector 968  DataCentricNet.host[96].net  InterestInterDepartureTimesVector  ETV
vector 718  DataCentricNet.host[71].net  InterestInterDepartureTimesVector  ETV
vector 8  DataCentricNet.host[0].net  InterestInterDepartureTimesVector  ETV
vector 18  DataCentricNet.host[1].net  InterestInterDepartureTimesVector  ETV
vector 1188  DataCentricNet.host[118].net  InterestInterDepartureTimesVector  ETV
vector 738  DataCentricNet.host[73].net  InterestInterDepartureTimesVector  ETV
vector 478  DataCentricNet.host[47].net  InterestInterDepartureTimesVector  ETV
vector 268  DataCentricNet.host[26].net  InterestInterDepartureTimesVector  ETV
vector 1168  DataCentricNet.host[116].net  InterestInterDepartureTimesVector  ETV
vector 218  DataCentricNet.host[21].net  InterestInterDepartureTimesVector  ETV
vector 578  DataCentricNet.host[57].net  InterestInterDepartureTimesVector  ETV
vector 348  DataCentricNet.host[34].net  InterestInterDepartureTimesVector  ETV
vector 1138  DataCentricNet.host[113].net  InterestInterDepartureTimesVector  ETV
vector 828  DataCentricNet.host[82].net  InterestInterDepartureTimesVector  ETV
vector 1078  DataCentricNet.host[107].net  InterestInterDepartureTimesVector  ETV
vector 708  DataCentricNet.host[70].net  InterestInterDepartureTimesVector  ETV
vector 768  DataCentricNet.host[76].net  InterestInterDepartureTimesVector  ETV
vector 68  DataCentricNet.host[6].net  InterestInterDepartureTimesVector  ETV
vector 278  DataCentricNet.host[27].net  InterestInterDepartureTimesVector  ETV
vector 528  DataCentricNet.host[52].net  InterestInterDepartureTimesVector  ETV
vector 88  DataCentricNet.host[8].net  InterestInterDepartureTimesVector  ETV
vector 928  DataCentricNet.host[92].net  InterestInterDepartureTimesVector  ETV
vector 1118  DataCentricNet.host[111].net  InterestInterDepartureTimesVector  ETV
vector 538  DataCentricNet.host[53].net  InterestInterDepartureTimesVector  ETV
vector 988  DataCentricNet.host[98].net  InterestInterDepartureTimesVector  ETV
vector 788  DataCentricNet.host[78].net  InterestInterDepartureTimesVector  ETV
vector 398  DataCentricNet.host[39].net  InterestInterDepartureTimesVector  ETV
vector 618  DataCentricNet.host[61].net  InterestInterDepartureTimesVector  ETV
vector 358  DataCentricNet.host[35].net  InterestInterDepartureTimesVector  ETV
vector 518  DataCentricNet.host[51].net  InterestInterDepartureTimesVector  ETV
vector 488  DataCentricNet.host[48].net  InterestInterDepartureTimesVector  ETV
vector 98  DataCentricNet.host[9].net  InterestInterDepartureTimesVector  ETV
vector 1018  DataCentricNet.host[101].net  InterestInterDepartureTimesVector  ETV
vector 668  DataCentricNet.host[66].net  InterestInterDepartureTimesVector  ETV
vector 948  DataCentricNet.host[94].net  InterestInterDepartureTimesVector  ETV
vector 888  DataCentricNet.host[88].net  InterestInterDepartureTimesVector  ETV
vector 198  DataCentricNet.host[19].net  InterestInterDepartureTimesVector  ETV
vector 848  DataCentricNet.host[84].net  InterestInterDepartureTimesVector  ETV
vector 1148  DataCentricNet.host[114].net  InterestInterDepartureTimesVector  ETV
vector 1058  DataCentricNet.host[105].net  InterestInterDepartureTimesVector  ETV
vector 898  DataCentricNet.host[89].net  InterestInterDepartureTimesVector  ETV
vector 408  DataCentricNet.host[40].net  InterestInterDepartureTimesVector  ETV
vector 1208  DataCentricNet.host[120].net  InterestInterDepartureTimesVector  ETV
vector 1218  DataCentricNet.host[121].net  InterestInterDepartureTimesVector  ETV
vector 688  DataCentricNet.host[68].net  InterestInterDepartureTimesVector  ETV
vector 678  DataCentricNet.host[67].net  InterestInterDepartureTimesVector  ETV
vector 248  DataCentricNet.host[24].net  InterestInterDepartureTimesVector  ETV
vector 128  DataCentricNet.host[12].net  InterestInterDepartureTimesVector  ETV
vector 178  DataCentricNet.host[17].net  InterestInterDepartureTimesVector  ETV
vector 308  DataCentricNet.host[30].net  InterestInterDepartureTimesVector  ETV
vector 1088  DataCentricNet.host[108].net  InterestInterDepartureTimesVector  ETV
vector 1198  DataCentricNet.host[119].net  InterestInterDepartureTimesVector  ETV
vector 1028  DataCentricNet.host[102].net  InterestInterDepartureTimesVector  ETV
vector 288  DataCentricNet.host[28].net  InterestInterDepartureTimesVector  ETV
vector 978  DataCentricNet.host[97].net  InterestInterDepartureTimesVector  ETV
vector 1238  DataCentricNet.host[123].net  InterestInterDepartureTimesVector  ETV
vector 1108  DataCentricNet.host[110].net  InterestInterDepartureTimesVector  ETV
vector 388  DataCentricNet.host[38].net  InterestInterDepartureTimesVector  ETV
vector 868  DataCentricNet.host[86].net  InterestInterDepartureTimesVector  ETV
vector 338  DataCentricNet.host[33].net  InterestInterDepartureTimesVector  ETV
vector 448  DataCentricNet.host[44].net  InterestInterDepartureTimesVector  ETV
vector 1048  DataCentricNet.host[104].net  InterestInterDepartureTimesVector  ETV
vector 1178  DataCentricNet.host[117].net  InterestInterDepartureTimesVector  ETV
vector 878  DataCentricNet.host[87].net  InterestInterDepartureTimesVector  ETV
vector 378  DataCentricNet.host[37].net  InterestInterDepartureTimesVector  ETV
vector 298  DataCentricNet.host[29].net  InterestInterDepartureTimesVector  ETV
vector 798  DataCentricNet.host[79].net  InterestInterDepartureTimesVector  ETV
vector 48  DataCentricNet.host[4].net  InterestInterDepartureTimesVector  ETV
vector 698  DataCentricNet.host[69].net  InterestInterDepartureTimesVector  ETV
vector 228  DataCentricNet.host[22].net  InterestInterDepartureTimesVector  ETV
vector 318  DataCentricNet.host[31].net  InterestInterDepartureTimesVector  ETV
vector 208  DataCentricNet.host[20].net  InterestInterDepartureTimesVector  ETV
vector 1038  DataCentricNet.host[103].net  InterestInterDepartureTimesVector  ETV
vector 638  DataCentricNet.host[63].net  InterestInterDepartureTimesVector  ETV
vector 608  DataCentricNet.host[60].net  InterestInterDepartureTimesVector  ETV
vector 758  DataCentricNet.host[75].net  InterestInterDepartureTimesVector  ETV
vector 748  DataCentricNet.host[74].net  InterestInterDepartureTimesVector  ETV
vector 508  DataCentricNet.host[50].net  InterestInterDepartureTimesVector  ETV
vector 1158  DataCentricNet.host[115].net  InterestInterDepartureTimesVector  ETV
vector 438  DataCentricNet.host[43].net  InterestInterDepartureTimesVector  ETV
vector 1260  DataCentricNet.dataCentricNetworkMan  modulesDownVector  ETV
vector 1258  DataCentricNet.dataCentricNetworkMan  dataPacketE2EDelay  ETV
8	18841 936 50238 1268340 1.066672305772 41.004732315322 27 0 0.484611265662 0.960189760993 0.27961134682187
9	19777 810 388 1403311 1 53 53 0 0 0 0
18	20587 719 50241 1268298 1.066672305864 41.004732305994 21 0 0.48811009598 0.863801872657 0.27972134480817
19	21306 863 390 1403312 1 53 53 0 0 0 0
28	22169 337 36516 419223 1.043962823359 3.591005357815 9 0 0.072649830635 0.21946043612 0.011964249170044
29	22506 863 392 1403313 1 53 53 0 1 37 37
38	23369 760 41319 1268352 1.05182787203 41.004732316773 22 0 0.488110093317 1.000349374011 0.29677868050615
39	24129 863 394 1403314 1 53 53 0 0 0 0
48	24992 851 94953 1268406 1.124477697401 41.004732332155 24 0 0.4792115407 1.210456499462 0.30793305018052
49	25843 863 396 1403315 1 53 53 0 0 0 0
58	26706 1569 19275 1268550 1.014434678531 41.004732364531 43 0 0.629153712315 0.979326464581 0.41088717048977
59	28275 863 398 1403316 1 53 53 0 0 0 0
68	29138 561 50883 950405 1.067646208711 26.629118254769 15 0 0.349326546466 0.858169266882 0.18438019264519
69	29699 863 400 1403317 1 53 53 0 1 25 25
78	30562 758 50226 1268295 1.066672304802 41.004732304793 22 0 0.48811009274 0.989390986534 0.29486556458094
79	31320 863 402 1403318 1 53 53 0 0 0 0
88	32183 927 50907 1268367 1.067646213112 41.004732319962 26 0 0.479211541733 1.321820908905 0.33891634807114
89	33110 863 404 1403319 1 53 53 0 0 0 0
98	33973 972 55306 1268466 1.074014630341 41.004732345489 27 0 0.5665115601 1.224957490822 0.38312787784099
99	34945 863 406 1403320 1 53 53 0 0 0 0
108	35808 757 39198 1268517 1.048411860745 41.004732351505 22 0 0.634362874241 0.827173119371 0.41101885232288
109	36565 916 408 1403321 1 53 53 0 0 0 0
118	37481 843 36543 1268442 1.043962834393 41.004732339671 24 0 0.643092982416 1.006876790986 0.44608934158165
119	38324 916 410 1403322 1 53 53 0 0 0 0
128	39240 1089 78588 1268436 1.099464414499 41.00473233737 29 0 0.563912589087 1.560454632389 0.44923218122829
129	40329 916 412 1403323 1 53 53 0 0 0 0
138	41245 823 49763 1268463 1.065559339903 41.004732342298 23 0 0.521400215395 1.129953294943 0.36280971227219
139	42068 916 414 1403324 1 53 53 0 0 0 0
148	42984 746 41451 1268385 1.051827890817 41.004732324877 21 0 0.570132413193 0.848700221653 0.34054140070612
149	43730 916 416 1403325 1 53 53 0 1 8 8
158	44646 842 36522 1268391 1.043962826471 41.004732328201 24 0 0.643093008348 1.00687678559 0.44608937255454
159	45488 916 418 1403326 1 53 53 0 0 0 0
168	46404 759 36614 1268481 1.043962848886 41.004732346721 22 0 0.634362874557 0.827173118671 0.41361957878939
169	47163 916 420 1403327 1 53 53 0 0 0 0
178	48079 957 78606 1268445 1.09946441781 41.004732339747 26 0 0.559654406801 1.396060395624 0.40842372374547
179	49036 916 422 1403328 1 53 53 0 0 0 0
188	49952 822 49125 1268373 1.064320823893 41.004732322035 23 0 0.488110120751 1.1286690019 0.34539873188415
189	50774 916 424 1403329 1 53 53 0 0 0 0
198	51690 533 68658 950021 1.086876751097 26.627949469814 14 0 0.342249148649 0.824174880443 0.18024416231748
199	52223 916 426 1403330 1 53 53 0 1 26 26
208	53139 772 95022 1196132 1.124477711023 34.007727597052 21 0 0.419883057234 1.161961471486 0.25810808110906
209	53911 916 428 1403331 1 53 53 0 1 16 16
218	54827 908 50286 1268343 1.066672312951 41.004732315999 25 0 0.488110088935 1.055320063084 0.29816105221845
219	55735 916 430 1403332 1 53 53 0 0 0 0
228	56651 1003 94983 1268469 1.124477702343 41.004732346134 27 0 0.50766285245 1.144597763041 0.31736142921136
229	57654 916 432 1403333 1 53 53 0 0 0 0
238	58570 789 49724 1268421 1.065559336834 41.004732335209 22 0 0.563331268921 0.957364659341 0.35021464544325
239	59359 916 434 1403334 1 53 53 0 0 0 0
248	60275 830 78564 1152193 1.099464409712 32.067043277695 22 0 0.479211550086 1.279796774101 0.33093468614785
249	61105 916 436 1403335 1 53 53 0 1 20 20
258	62021 800 36537 1268487 1.04396283398 41.004732347084 23 0 0.634362889674 0.854774453652 0.41438143054786
259	62821 916 438 1403336 1 53 53 0 0 0 0
268	63737 907 50277 1268325 1.066672312173 41.004732313898 25 0 0.488110084158 1.055320060834 0.29816104787709
269	64644 916 440 1403337 1 53 53 0 0 0 0
278	65560 962 50886 1268331 1.067646208918 41.004732314868 26 0 0.479211542296 1.16320735997 0.2984592061348
279	66522 916 442 1403338 1 53 53 0 1 9 9
288	67438 1010 78702 1268478 1.099464430775 41.004732346558 27 0 0.507662861276 1.162992183984 0.31830755762123
289	68448 916 444 1403339 1 53 53 0 0 0 0
298	69364 742 94911 1268328 1.124477691543 41.004732314309 21 0 0.488110110083 1.122078298009 0.34669991381753
299	70106 916 446 1403340 1 53 53 0 0 0 0
308	71022 876 78633 1122908 1.099464422528 32.00503145525 23 0 0.568002945766 1.297675292502 0.39069747377265
309	71898 916 448 1403341 1 53 53 0 1 21 21
318	72814 167 95007 301356 1.124477707948 1.451069874446 4 0.045090160786 0.219521640659 0.379173296111 0.056829214160809
319	72981 916 450 1403342 1 53 53 0 1 50 50
328	73897 883 49757 1268409 1.065559339314 41.004732332618 25 0 0.563331266349 0.984966005781 0.35097647731585
329	74780 916 452 1403343 1 53 53 0 0 0 0
338	75696 166 89512 172785 1.115547833081 1.231548229711 4 0.008929879342 0.061980385631 0.165988888345 0.0084532802248164
339	75862 916 454 1403344 1 53 53 0 1 46 46
348	76778 570 50304 943904 1.066672315684 26.618356124466 15 0 0.484611253806 0.859351958825 0.27482066868609
349	77348 916 456 1403345 1 53 53 0 1 25 25
358	78264 961 55277 1268454 1.074014624286 41.004732341981 26 0 0.566511567011 1.185133396262 0.38139950700905
359	79225 916 458 1403346 1 53 53 0 1 9 9
368	80141 715 39186 1268460 1.048411851972 41.004732342096 21 0 0.63927305532 0.832083282379 0.41991138810979
369	80856 916 460 1403347 1 53 53 0 0 0 0
378	81772 742 94908 1268334 1.124477690434 41.004732314888 21 0 0.488110110255 1.122078297196 0.34669991372029
379	82514 916 462 1403348 1 53 53 0 0 0 0
388	83430 395 85650 791050 1.109162834403 23.798201486347 10 0 0.345747989936 0.954908555055 0.19893261125708
389	83825 916 464 1403349 1 53 53 0 1 29 29
398	84741 1081 53898 1268415 1.071896568141 41.00473233404 29 0 0.423087356226 1.313873674209 0.28876568037656
399	85822 916 466 1403350 1 53 53 0 1 5 5
408	86738 831 69722 1268493 1.08780087637 41.004732348745 23 0 0.419883044532 1.020143063473 0.24663721527284
409	87569 916 468 1403351 1 53 53 0 1 6 6
418	88485 737 41349 1268355 1.05182787553 41.004732316903 21 0 0.488110099286 0.877364870528 0.28165349720974
419	89222 916 470 1403352 1 53 53 0 0 0 0
428	90138 759 36609 1268505 1.043962848315 41.004732350675 22 0 0.634362867996 0.827173119471 0.41361956994911
429	90897 916 472 1403353 1 53 53 0 0 0 0
438	91813 126 138154 197988 1.186458097118 1.259149565835 3 0.027601344504 0.119785773486 0.192477242203 0.017143585049612
439	91939 916 474 1403354 1 53 53 0 1 36 36
448	92855 1173 91988 1268523 1.119932131239 41.0047323534 31 0 0.508849944467 1.425307129284 0.40526558869018
449	94028 916 476 1403355 1 53 53 0 0 0 0
458	94944 508 41424 998865 1.051827887372 26.766096815008 14 0 0.643093017531 0.999225450305 0.44470263046002
459	95452 916 478 1403356 1 53 53 0 1 26 26
468	96368 758 36631 1268541 1.043962851301 41.004732362199 22 0 0.634362864373 0.827173124769 0.41361956565554
469	97126 916 480 1403357 1 53 53 0 0 0 0
478	98042 741 50274 1268301 1.066672312135 41.004732307844 21 0 0.488110092161 0.863801868541 0.27972133971961
479	98783 916 482 1403358 1 53 53 0 0 0 0
488	99699 1048 55297 1268484 1.074014629165 41.00473234684 28 0 0.566511568707 1.243010195033 0.3840733530189
489	100747 916 484 1403359 1 53 53 0 0 0 0
498	101663 843 36558 1268427 1.043962840957 41.004732335861 24 0 0.664523242155 1.006876801212 0.46842614704319
499	102506 916 486 1403360 1 53 53 0 1 5 5
508	103422 723 95112 1268514 1.124477724133 41.004732351149 21 0 0.63927304997 0.837143416195 0.4193087792231
509	104145 916 488 1403361 1 53 53 0 1 8 8
518	105061 1127 55286 1268457 1.074014625396 41.004732342028 30 0 0.572932725419 1.306517643771 0.3911812403865
519	106188 916 490 1403362 1 53 53 0 0 0 0
528	107104 246 50904 172764 1.06764621057 1.231548226048 6 0.000973884025 0.061980379494 0.164875899503 0.007719776568954
529	107350 916 492 1403363 1 53 53 0 1 43 43
538	108266 881 50952 1268370 1.067646218791 41.004732321271 24 0 0.479211549652 1.047609267514 0.28624021717469
539	109147 916 494 1403364 1 53 53 0 0 0 0
548	110063 288 36552 198166 1.043962837571 1.25914959733 7 0.003416019072 0.072649836256 0.21946045992 0.011964249848148
549	110351 916 496 1403365 1 53 53 0 1 52 52
558	111267 550 36594 936871 1.043962844871 26.602039439662 15 0 0.643092984519 0.883983653081 0.42599209271715
559	111817 916 498 1403366 1 53 53 0 1 24 24
568	112733 839 36525 1268433 1.043962828541 41.004732336583 24 0 0.650767724049 1.009891745558 0.45470493684891
569	113572 916 500 1403367 1 53 53 0 0 0 0
578	114488 992 50295 1268361 1.066672314683 41.004732318366 27 0 0.484611258996 1.01674770521 0.28403467184199
579	115480 916 502 1403368 1 53 53 0 0 0 0
588	116396 407 36604 736246 1.043962847523 23.641557792661 11 0 0.634362856083 0.826221996319 0.4136186504881
589	116803 916 504 1403369 1 53 53 0 1 29 29
598	117719 759 36623 1268532 1.043962850096 41.004732361027 22 0 0.63436284757 0.827173125007 0.41361954423487
599	118478 916 506 1403370 1 53 53 0 0 0 0
608	119394 248 95061 303185 1.124477717034 1.45556552756 6 0.011082402132 0.22401728328 0.370020652301 0.055204688397976
609	119642 916 508 1403371 1 53 53 0 1 35 35
618	120558 1217 55250 1268439 1.074014621792 41.004732337913 32 0 0.563912590731 1.560454631683 0.44465508846595
619	121775 916 510 1403372 1 53 53 0 0 0 0
628	122691 868 41463 1268403 1.051827891759 41.004732331233 24 0 0.48811012149 1.135641302283 0.30911073041504
629	123559 916 512 1403373 1 53 53 0 0 0 0
638	124475 814 95031 1196159 1.124477711772 34.007727600465 22 0 0.428713160946 1.077118004606 0.25719800147878
639	125289 916 514 1403374 1 53 53 0 1 14 14
648	126205 867 41295 1268382 1.051827869545 41.004732324413 24 0 0.488110091207 1.068883024149 0.29985746581449
649	127072 916 516 1403375 1 53 53 0 0 0 0
658	127988 755 36584 1268499 1.043962843549 41.004732350225 22 0 0.634362866654 0.827173119791 0.41361956825967
659	128743 916 518 1403376 1 53 53 0 0 0 0
668	129659 438 66392 1296325 1.084381220296 41.043942246695 11 0 0.063813857306 0.240603182672 0.0093939165304887
669	130097 916 520 1403377 1 53 53 0 1 38 38
678	131013 958 78549 1268394 1.099464406744 41.004732328286 26 0 0.479211547288 1.300048875152 0.34231185714016
679	131971 916 522 1403378 1 53 53 0 0 0 0
688	132887 655 78540 1312635 1.099464400832 41.095716916557 17 0 0.236138672354 0.552636908956 0.073303094141322
689	133542 916 524 1403379 1 53 53 0 1 18 18
698	134458 764 94965 1196129 1.12447769829 34.007727596415 21 0 0.479211542854 1.314950883074 0.34679102927132
699	135222 916 526 1403380 1 53 53 0 1 16 16
708	136138 957 50877 1268364 1.067646207923 41.004732318433 26 0 0.479211545649 1.163207371604 0.29845920565335
709	137095 916 528 1403381 1 53 53 0 0 0 0
718	138011 736 50235 1268292 1.06667230555 41.004732304553 21 0 0.488110098592 0.863801871257 0.27972134711763
719	138747 916 530 1403382 1 53 53 0 0 0 0
728	139663 800 36568 1268502 1.043962841775 41.004732350537 23 0 0.63436287704 0.854774459701 0.41438141540075
729	140463 916 532 1403383 1 53 53 0 0 0 0