version 2
run General-0-20120821-15:20:50-3908
attr configname General
attr datetime 20120821-15:20:50
attr experiment General
attr inifile omnetpp.ini
attr iterationvars ""
attr iterationvars2 $repetition=0
attr measurement ""
attr network DataCentricNet
attr processid 3908
attr repetition 0
attr replication #0
attr resultdir results
attr runnumber 0
attr seedset 0

vector 9  DataCentricNet.host[0].net  StabilityVector  ETV
vector 19  DataCentricNet.host[1].net  StabilityVector  ETV
vector 29  DataCentricNet.host[2].net  StabilityVector  ETV
vector 39  DataCentricNet.host[3].net  StabilityVector  ETV
vector 49  DataCentricNet.host[4].net  StabilityVector  ETV
vector 59  DataCentricNet.host[5].net  StabilityVector  ETV
vector 69  DataCentricNet.host[6].net  StabilityVector  ETV
vector 79  DataCentricNet.host[7].net  StabilityVector  ETV
vector 89  DataCentricNet.host[8].net  StabilityVector  ETV
vector 99  DataCentricNet.host[9].net  StabilityVector  ETV
vector 109  DataCentricNet.host[10].net  StabilityVector  ETV
vector 119  DataCentricNet.host[11].net  StabilityVector  ETV
vector 129  DataCentricNet.host[12].net  StabilityVector  ETV
vector 139  DataCentricNet.host[13].net  StabilityVector  ETV
vector 149  DataCentricNet.host[14].net  StabilityVector  ETV
vector 159  DataCentricNet.host[15].net  StabilityVector  ETV
vector 169  DataCentricNet.host[16].net  StabilityVector  ETV
vector 179  DataCentricNet.host[17].net  StabilityVector  ETV
vector 189  DataCentricNet.host[18].net  StabilityVector  ETV
vector 199  DataCentricNet.host[19].net  StabilityVector  ETV
vector 209  DataCentricNet.host[20].net  StabilityVector  ETV
vector 219  DataCentricNet.host[21].net  StabilityVector  ETV
vector 229  DataCentricNet.host[22].net  StabilityVector  ETV
vector 239  DataCentricNet.host[23].net  StabilityVector  ETV
vector 249  DataCentricNet.host[24].net  StabilityVector  ETV
vector 259  DataCentricNet.host[25].net  StabilityVector  ETV
vector 269  DataCentricNet.host[26].net  StabilityVector  ETV
vector 279  DataCentricNet.host[27].net  StabilityVector  ETV
vector 289  DataCentricNet.host[28].net  StabilityVector  ETV
vector 299  DataCentricNet.host[29].net  StabilityVector  ETV
vector 309  DataCentricNet.host[30].net  StabilityVector  ETV
vector 319  DataCentricNet.host[31].net  StabilityVector  ETV
vector 329  DataCentricNet.host[32].net  StabilityVector  ETV
vector 339  DataCentricNet.host[33].net  StabilityVector  ETV
vector 349  DataCentricNet.host[34].net  StabilityVector  ETV
vector 359  DataCentricNet.host[35].net  StabilityVector  ETV
vector 369  DataCentricNet.host[36].net  StabilityVector  ETV
vector 379  DataCentricNet.host[37].net  StabilityVector  ETV
vector 389  DataCentricNet.host[38].net  StabilityVector  ETV
vector 399  DataCentricNet.host[39].net  StabilityVector  ETV
vector 409  DataCentricNet.host[40].net  StabilityVector  ETV
vector 419  DataCentricNet.host[41].net  StabilityVector  ETV
vector 429  DataCentricNet.host[42].net  StabilityVector  ETV
vector 439  DataCentricNet.host[43].net  StabilityVector  ETV
vector 449  DataCentricNet.host[44].net  StabilityVector  ETV
vector 459  DataCentricNet.host[45].net  StabilityVector  ETV
vector 469  DataCentricNet.host[46].net  StabilityVector  ETV
vector 479  DataCentricNet.host[47].net  StabilityVector  ETV
vector 489  DataCentricNet.host[48].net  StabilityVector  ETV
vector 499  DataCentricNet.host[49].net  StabilityVector  ETV
vector 509  DataCentricNet.host[50].net  StabilityVector  ETV
vector 519  DataCentricNet.host[51].net  StabilityVector  ETV
vector 529  DataCentricNet.host[52].net  StabilityVector  ETV
vector 539  DataCentricNet.host[53].net  StabilityVector  ETV
vector 549  DataCentricNet.host[54].net  StabilityVector  ETV
vector 559  DataCentricNet.host[55].net  StabilityVector  ETV
vector 569  DataCentricNet.host[56].net  StabilityVector  ETV
vector 579  DataCentricNet.host[57].net  StabilityVector  ETV
vector 589  DataCentricNet.host[58].net  StabilityVector  ETV
vector 599  DataCentricNet.host[59].net  StabilityVector  ETV
vector 609  DataCentricNet.host[60].net  StabilityVector  ETV
vector 619  DataCentricNet.host[61].net  StabilityVector  ETV
vector 629  DataCentricNet.host[62].net  StabilityVector  ETV
vector 639  DataCentricNet.host[63].net  StabilityVector  ETV
vector 649  DataCentricNet.host[64].net  StabilityVector  ETV
vector 659  DataCentricNet.host[65].net  StabilityVector  ETV
vector 669  DataCentricNet.host[66].net  StabilityVector  ETV
vector 679  DataCentricNet.host[67].net  StabilityVector  ETV
vector 689  DataCentricNet.host[68].net  StabilityVector  ETV
vector 699  DataCentricNet.host[69].net  StabilityVector  ETV
vector 709  DataCentricNet.host[70].net  StabilityVector  ETV
vector 719  DataCentricNet.host[71].net  StabilityVector  ETV
vector 729  DataCentricNet.host[72].net  StabilityVector  ETV
vector 739  DataCentricNet.host[73].net  StabilityVector  ETV
vector 749  DataCentricNet.host[74].net  StabilityVector  ETV
vector 759  DataCentricNet.host[75].net  StabilityVector  ETV
vector 769  DataCentricNet.host[76].net  StabilityVector  ETV
vector 779  DataCentricNet.host[77].net  StabilityVector  ETV
vector 789  DataCentricNet.host[78].net  StabilityVector  ETV
vector 799  DataCentricNet.host[79].net  StabilityVector  ETV
vector 809  DataCentricNet.host[80].net  StabilityVector  ETV
vector 819  DataCentricNet.host[81].net  StabilityVector  ETV
vector 829  DataCentricNet.host[82].net  StabilityVector  ETV
vector 839  DataCentricNet.host[83].net  StabilityVector  ETV
vector 849  DataCentricNet.host[84].net  StabilityVector  ETV
vector 859  DataCentricNet.host[85].net  StabilityVector  ETV
vector 869  DataCentricNet.host[86].net  StabilityVector  ETV
vector 879  DataCentricNet.host[87].net  StabilityVector  ETV
vector 889  DataCentricNet.host[88].net  StabilityVector  ETV
vector 899  DataCentricNet.host[89].net  StabilityVector  ETV
vector 909  DataCentricNet.host[90].net  StabilityVector  ETV
vector 919  DataCentricNet.host[91].net  StabilityVector  ETV
vector 929  DataCentricNet.host[92].net  StabilityVector  ETV
vector 939  DataCentricNet.host[93].net  StabilityVector  ETV
vector 949  DataCentricNet.host[94].net  StabilityVector  ETV
vector 959  DataCentricNet.host[95].net  StabilityVector  ETV
vector 969  DataCentricNet.host[96].net  StabilityVector  ETV
vector 979  DataCentricNet.host[97].net  StabilityVector  ETV
vector 989  DataCentricNet.host[98].net  StabilityVector  ETV
vector 999  DataCentricNet.host[99].net  StabilityVector  ETV
vector 1009  DataCentricNet.host[100].net  StabilityVector  ETV
vector 1019  DataCentricNet.host[101].net  StabilityVector  ETV
vector 1029  DataCentricNet.host[102].net  StabilityVector  ETV
vector 1039  DataCentricNet.host[103].net  StabilityVector  ETV
vector 1049  DataCentricNet.host[104].net  StabilityVector  ETV
vector 1059  DataCentricNet.host[105].net  StabilityVector  ETV
vector 1069  DataCentricNet.host[106].net  StabilityVector  ETV
vector 1079  DataCentricNet.host[107].net  StabilityVector  ETV
vector 1089  DataCentricNet.host[108].net  StabilityVector  ETV
vector 1099  DataCentricNet.host[109].net  StabilityVector  ETV
vector 1109  DataCentricNet.host[110].net  StabilityVector  ETV
vector 1119  DataCentricNet.host[111].net  StabilityVector  ETV
vector 1129  DataCentricNet.host[112].net  StabilityVector  ETV
vector 1139  DataCentricNet.host[113].net  StabilityVector  ETV
vector 1149  DataCentricNet.host[114].net  StabilityVector  ETV
vector 1159  DataCentricNet.host[115].net  StabilityVector  ETV
vector 1169  DataCentricNet.host[116].net  StabilityVector  ETV
vector 1179  DataCentricNet.host[117].net  StabilityVector  ETV
vector 1189  DataCentricNet.host[118].net  StabilityVector  ETV
vector 1199  DataCentricNet.host[119].net  StabilityVector  ETV
vector 1209  DataCentricNet.host[120].net  StabilityVector  ETV
vector 1219  DataCentricNet.host[121].net  StabilityVector  ETV
vector 1229  DataCentricNet.host[122].net  StabilityVector  ETV
vector 1239  DataCentricNet.host[123].net  StabilityVector  ETV
vector 1249  DataCentricNet.host[124].net  StabilityVector  ETV
vector 1257  DataCentricNet.dataCentricNetworkMan  reinforcementPacketFrequency  ETV
vector 1259  DataCentricNet.dataCentricNetworkMan  breakagePacketFrequency  ETV
vector 58  DataCentricNet.host[5].net  InterestInterDepartureTimesVector  ETV
vector 28  DataCentricNet.host[2].net  InterestInterDepartureTimesVector  ETV
vector 158  DataCentricNet.host[15].net  InterestInterDepartureTimesVector  ETV
vector 568  DataCentricNet.host[56].net  InterestInterDepartureTimesVector  ETV
vector 818  DataCentricNet.host[81].net  InterestInterDepartureTimesVector  ETV
vector 258  DataCentricNet.host[25].net  InterestInterDepartureTimesVector  ETV
vector 998  DataCentricNet.host[99].net  InterestInterDepartureTimesVector  ETV
vector 118  DataCentricNet.host[11].net  InterestInterDepartureTimesVector  ETV
vector 548  DataCentricNet.host[54].net  InterestInterDepartureTimesVector  ETV
vector 498  DataCentricNet.host[49].net  InterestInterDepartureTimesVector  ETV
vector 728  DataCentricNet.host[72].net  InterestInterDepartureTimesVector  ETV
vector 1098  DataCentricNet.host[109].net  InterestInterDepartureTimesVector  ETV
vector 938  DataCentricNet.host[93].net  InterestInterDepartureTimesVector  ETV
vector 658  DataCentricNet.host[65].net  InterestInterDepartureTimesVector  ETV
vector 1228  DataCentricNet.host[122].net  InterestInterDepartureTimesVector  ETV
vector 558  DataCentricNet.host[55].net  InterestInterDepartureTimesVector  ETV
vector 1008  DataCentricNet.host[100].net  InterestInterDepartureTimesVector  ETV
vector 588  DataCentricNet.host[58].net  InterestInterDepartureTimesVector  ETV
vector 428  DataCentricNet.host[42].net  InterestInterDepartureTimesVector  ETV
vector 168  DataCentricNet.host[16].net  InterestInterDepartureTimesVector  ETV
vector 598  DataCentricNet.host[59].net  InterestInterDepartureTimesVector  ETV
vector 1068  DataCentricNet.host[106].net  InterestInterDepartureTimesVector  ETV
vector 468  DataCentricNet.host[46].net  InterestInterDepartureTimesVector  ETV
vector 368  DataCentricNet.host[36].net  InterestInterDepartureTimesVector  ETV
vector 108  DataCentricNet.host[10].net  InterestInterDepartureTimesVector  ETV
vector 1248  DataCentricNet.host[124].net  InterestInterDepartureTimesVector  ETV
vector 918  DataCentricNet.host[91].net  InterestInterDepartureTimesVector  ETV
vector 838  DataCentricNet.host[83].net  InterestInterDepartureTimesVector  ETV
vector 648  DataCentricNet.host[64].net  InterestInterDepartureTimesVector  ETV
vector 38  DataCentricNet.host[3].net  InterestInterDepartureTimesVector  ETV
vector 418  DataCentricNet.host[41].net  InterestInterDepartureTimesVector  ETV
vector 808  DataCentricNet.host[80].net  InterestInterDepartureTimesVector  ETV
vector 858  DataCentricNet.host[85].net  InterestInterDepartureTimesVector  ETV
vector 1128  DataCentricNet.host[112].net  InterestInterDepartureTimesVector  ETV
vector 458  DataCentricNet.host[45].net  InterestInterDepartureTimesVector  ETV
vector 148  DataCentricNet.host[14].net  InterestInterDepartureTimesVector  ETV
vector 628  DataCentricNet.host[62].net  InterestInterDepartureTimesVector  ETV
vector 778  DataCentricNet.host[77].net  InterestInterDepartureTimesVector  ETV
vector 238  DataCentricNet.host[23].net  InterestInterDepartureTimesVector  ETV
vector 898  DataCentricNet.host[89].net  InterestInterDepartureTimesVector  ETV
vector 8  DataCentricNet.host[0].net  InterestInterDepartureTimesVector  ETV
vector 758  DataCentricNet.host[75].net  InterestInterDepartureTimesVector  ETV
vector 208  DataCentricNet.host[20].net  InterestInterDepartureTimesVector  ETV
vector 1018  DataCentricNet.host[101].net  InterestInterDepartureTimesVector  ETV
vector 908  DataCentricNet.host[90].net  InterestInterDepartureTimesVector  ETV
vector 78  DataCentricNet.host[7].net  InterestInterDepartureTimesVector  ETV
vector 968  DataCentricNet.host[96].net  InterestInterDepartureTimesVector  ETV
vector 738  DataCentricNet.host[73].net  InterestInterDepartureTimesVector  ETV
vector 268  DataCentricNet.host[26].net  InterestInterDepartureTimesVector  ETV
vector 578  DataCentricNet.host[57].net  InterestInterDepartureTimesVector  ETV
vector 708  DataCentricNet.host[70].net  InterestInterDepartureTimesVector  ETV
vector 278  DataCentricNet.host[27].net  InterestInterDepartureTimesVector  ETV
vector 478  DataCentricNet.host[47].net  InterestInterDepartureTimesVector  ETV
vector 1048  DataCentricNet.host[104].net  InterestInterDepartureTimesVector  ETV
vector 768  DataCentricNet.host[76].net  InterestInterDepartureTimesVector  ETV
vector 878  DataCentricNet.host[87].net  InterestInterDepartureTimesVector  ETV
vector 88  DataCentricNet.host[8].net  InterestInterDepartureTimesVector  ETV
vector 1118  DataCentricNet.host[111].net  InterestInterDepartureTimesVector  ETV
vector 538  DataCentricNet.host[53].net  InterestInterDepartureTimesVector  ETV
vector 788  DataCentricNet.host[78].net  InterestInterDepartureTimesVector  ETV
vector 438  DataCentricNet.host[43].net  InterestInterDepartureTimesVector  ETV
vector 988  DataCentricNet.host[98].net  InterestInterDepartureTimesVector  ETV
vector 1178  DataCentricNet.host[117].net  InterestInterDepartureTimesVector  ETV
vector 688  DataCentricNet.host[68].net  InterestInterDepartureTimesVector  ETV
vector 948  DataCentricNet.host[94].net  InterestInterDepartureTimesVector  ETV
vector 608  DataCentricNet.host[60].net  InterestInterDepartureTimesVector  ETV
vector 1108  DataCentricNet.host[110].net  InterestInterDepartureTimesVector  ETV
vector 308  DataCentricNet.host[30].net  InterestInterDepartureTimesVector  ETV
vector 618  DataCentricNet.host[61].net  InterestInterDepartureTimesVector  ETV
vector 518  DataCentricNet.host[51].net  InterestInterDepartureTimesVector  ETV
vector 1218  DataCentricNet.host[121].net  InterestInterDepartureTimesVector  ETV
vector 1138  DataCentricNet.host[113].net  InterestInterDepartureTimesVector  ETV
vector 1238  DataCentricNet.host[123].net  InterestInterDepartureTimesVector  ETV
vector 178  DataCentricNet.host[17].net  InterestInterDepartureTimesVector  ETV
vector 1028  DataCentricNet.host[102].net  InterestInterDepartureTimesVector  ETV
vector 978  DataCentricNet.host[97].net  InterestInterDepartureTimesVector  ETV
vector 1198  DataCentricNet.host[119].net  InterestInterDepartureTimesVector  ETV
vector 228  DataCentricNet.host[22].net  InterestInterDepartureTimesVector  ETV
vector 128  DataCentricNet.host[12].net  InterestInterDepartureTimesVector  ETV
vector 1088  DataCentricNet.host[108].net  InterestInterDepartureTimesVector  ETV
vector 288  DataCentricNet.host[28].net  InterestInterDepartureTimesVector  ETV
vector 448  DataCentricNet.host[44].net  InterestInterDepartureTimesVector  ETV
vector 348  DataCentricNet.host[34].net  InterestInterDepartureTimesVector  ETV
vector 1158  DataCentricNet.host[115].net  InterestInterDepartureTimesVector  ETV
vector 1208  DataCentricNet.host[120].net  InterestInterDepartureTimesVector  ETV
vector 528  DataCentricNet.host[52].net  InterestInterDepartureTimesVector  ETV
vector 848  DataCentricNet.host[84].net  InterestInterDepartureTimesVector  ETV
vector 508  DataCentricNet.host[50].net  InterestInterDepartureTimesVector  ETV
vector 198  DataCentricNet.host[19].net  InterestInterDepartureTimesVector  ETV
vector 488  DataCentricNet.host[48].net  InterestInterDepartureTimesVector  ETV
vector 378  DataCentricNet.host[37].net  InterestInterDepartureTimesVector  ETV
vector 798  DataCentricNet.host[79].net  InterestInterDepartureTimesVector  ETV
vector 1188  DataCentricNet.host[118].net  InterestInterDepartureTimesVector  ETV
vector 188  DataCentricNet.host[18].net  InterestInterDepartureTimesVector  ETV
vector 718  DataCentricNet.host[71].net  InterestInterDepartureTimesVector  ETV
vector 18  DataCentricNet.host[1].net  InterestInterDepartureTimesVector  ETV
vector 1038  DataCentricNet.host[103].net  InterestInterDepartureTimesVector  ETV
vector 958  DataCentricNet.host[95].net  InterestInterDepartureTimesVector  ETV
vector 1168  DataCentricNet.host[116].net  InterestInterDepartureTimesVector  ETV
vector 218  DataCentricNet.host[21].net  InterestInterDepartureTimesVector  ETV
vector 828  DataCentricNet.host[82].net  InterestInterDepartureTimesVector  ETV
vector 928  DataCentricNet.host[92].net  InterestInterDepartureTimesVector  ETV
vector 358  DataCentricNet.host[35].net  InterestInterDepartureTimesVector  ETV
vector 138  DataCentricNet.host[13].net  InterestInterDepartureTimesVector  ETV
vector 328  DataCentricNet.host[32].net  InterestInterDepartureTimesVector  ETV
vector 748  DataCentricNet.host[74].net  InterestInterDepartureTimesVector  ETV
vector 338  DataCentricNet.host[33].net  InterestInterDepartureTimesVector  ETV
vector 1078  DataCentricNet.host[107].net  InterestInterDepartureTimesVector  ETV
vector 298  DataCentricNet.host[29].net  InterestInterDepartureTimesVector  ETV
vector 68  DataCentricNet.host[6].net  InterestInterDepartureTimesVector  ETV
vector 388  DataCentricNet.host[38].net  InterestInterDepartureTimesVector  ETV
vector 1058  DataCentricNet.host[105].net  InterestInterDepartureTimesVector  ETV
vector 868  DataCentricNet.host[86].net  InterestInterDepartureTimesVector  ETV
vector 408  DataCentricNet.host[40].net  InterestInterDepartureTimesVector  ETV
vector 1148  DataCentricNet.host[114].net  InterestInterDepartureTimesVector  ETV
vector 48  DataCentricNet.host[4].net  InterestInterDepartureTimesVector  ETV
vector 678  DataCentricNet.host[67].net  InterestInterDepartureTimesVector  ETV
vector 398  DataCentricNet.host[39].net  InterestInterDepartureTimesVector  ETV
vector 698  DataCentricNet.host[69].net  InterestInterDepartureTimesVector  ETV
vector 248  DataCentricNet.host[24].net  InterestInterDepartureTimesVector  ETV
vector 638  DataCentricNet.host[63].net  InterestInterDepartureTimesVector  ETV
vector 318  DataCentricNet.host[31].net  InterestInterDepartureTimesVector  ETV
vector 668  DataCentricNet.host[66].net  InterestInterDepartureTimesVector  ETV
vector 888  DataCentricNet.host[88].net  InterestInterDepartureTimesVector  ETV
vector 98  DataCentricNet.host[9].net  InterestInterDepartureTimesVector  ETV
vector 1260  DataCentricNet.dataCentricNetworkMan  modulesDownVector  ETV
vector 1258  DataCentricNet.dataCentricNetworkMan  dataPacketE2EDelay  ETV
8	46095	1.059003495602	0.003339071766
8	118388	1.175359396763	0.116355901161
8	144524	1.208309136065	0.032949739302
8	209900	1.326217666068	0.117908530003
8	421371	1.326317666068	0
8	421371	11.21596772913	0
8	605144	11.21606772913	0
8	605144	16.004045765284	0
8	675046	16.004145765284	0
8	675046	20.005867211142	0
8	780966	20.005967211142	0
8	780966	23.007655845182	0
8	825954	23.106932119321	0.099276274139
8	848931	23.169937305811	0.06300518649
8	901017	23.308251939708	0.138314633897
8	1058487	23.308351939708	0
8	1058487	30.008255622793	0
8	1082851	30.047173721396	0.038918098603
8	1151825	30.047273721396	0
8	1151825	34.00827842392	0
8	1287000	34.00837842392	0
8	1287000	47.005340173104	0
8	1321963	47.125402931789	0.120062758685
8	1410001	47.125502931789	0
8	1410001	52.004836669651	0
8	1425398	52.026842072626	0.022005402975
8	1449452	52.178271884881	0.151429812255
9	388	1	0
9	341887	2	0
9	342012	3	0
9	361527	4	0
9	362424	5	0
9	362549	6	0
9	362674	7	0
9	381888	8	0
9	382773	9	0
9	382898	10	0
9	383148	11	0
9	580151	12	0
9	581022	13	0
9	581147	14	0
9	603946	15	0
9	604799	16	0
9	650815	17	0
9	673366	18	0
9	674211	19	0
9	674336	20	0
9	779677	21	0
9	780518	22	0
9	780644	23	0
9	995519	24	0
9	997068	25	0
9	997193	26	0
9	1028434	27	0
9	1029973	28	0
9	1030098	29	0
9	1057340	30	0
9	1122937	31	0
9	1123062	32	0
9	1149991	33	0
9	1151491	34	0
9	1204713	35	0
9	1253114	36	0
9	1255388	37	0
9	1255513	38	0
9	1267062	39	0
9	1267194	40	0
9	1267570	41	0
9	1276937	42	0
9	1277069	43	0
9	1277195	44	0
9	1286339	45	0
9	1286471	46	0
9	1286597	47	0
9	1389937	48	0
9	1391342	49	0
9	1391467	50	0
9	1408242	51	0
9	1409638	52	0
9	1452440	53	0
18	104027	1.147290713695	0.091626287439
18	118439	1.175359406852	0.028068693157
18	144569	1.208309141069	0.032949734217
18	209975	1.326217675759	0.11790853469
18	451760	1.326317675759	0
18	451760	11.281944699707	0
18	464105	11.307368728165	0.025424028458
18	466360	11.312736728165	0.005368
18	605195	11.312836728165	0
18	605195	16.004045771877	0
18	675076	16.004145771877	0
18	675076	20.005867219505	0
18	780999	20.005967219505	0
18	780999	23.007655851963	0
18	825972	23.106932121741	0.099276269778
18	848949	23.169937308231	0.06300518649
18	888581	23.275219744728	0.105282436497
18	1058616	23.275319744728	0
18	1058616	30.008255641891	0
18	1151792	30.008355641891	0
18	1151792	34.008278412423	0
18	1287033	34.008378412423	0
18	1287033	47.005340181965	0
18	1321969	47.125402934209	0.120062752244
19	390	1	0
19	341888	2	0
19	342013	3	0
19	361528	4	0
19	362425	5	0
19	362550	6	0
19	362675	7	0
19	381889	8	0
19	382774	9	0
19	382899	10	0
19	383149	11	0
19	580152	12	0
19	581023	13	0
19	581148	14	0
19	603947	15	0
19	604800	16	0
19	650816	17	0
19	673367	18	0
19	674212	19	0
19	674337	20	0
19	779678	21	0
19	780519	22	0
19	780645	23	0
19	995520	24	0
19	997069	25	0
19	997194	26	0
19	1028435	27	0
19	1029974	28	0
19	1030099	29	0
19	1057341	30	0
19	1122938	31	0
19	1123063	32	0
19	1149992	33	0
19	1151492	34	0
19	1204714	35	0
19	1253115	36	0
19	1255389	37	0
19	1255514	38	0
19	1267063	39	0
19	1267195	40	0
19	1267571	41	0
19	1276938	42	0
19	1277070	43	0
19	1277196	44	0
19	1286340	45	0
19	1286472	46	0
19	1286598	47	0
19	1389938	48	0
19	1391343	49	0
19	1391468	50	1
19	1408243	51	1
19	1409639	52	1
19	1452441	53	1
28	36516	1.043962823359	0.004273676262
28	39279	1.048411872845	0.004449049486
28	41664	1.05182788658	0.003416013735
28	118268	1.175359372503	0.123531485923
28	144554	1.208309140392	0.032949767889
28	209885	1.326217658099	0.117908517707
28	413850	1.326317658099	0
28	413850	11.198232260028	0
28	605066	11.198332260028	0
28	605066	16.004045739935	0
28	675109	16.004145739935	0
28	675109	20.00586723311	0
28	781164	20.00596723311	0
28	781164	23.007655872397	0
28	815733	23.077556271055	0.069900398658
28	846325	23.163281329805	0.08572505875
28	875894	23.240569488318	0.077288158513
28	1058502	23.240669488318	0
28	1058502	30.008255625217	0
28	1151810	30.008355625217	0
28	1151810	34.008278420373	0
28	1174354	34.038312618214	0.030034197841
28	1287078	34.038412618214	0
28	1287078	47.005340198611	0
28	1410121	47.005440198611	0
28	1410121	52.004836695806	0
28	1442381	52.140595652493	0.135758956687
29	392	1	0
29	341889	2	0
29	342014	3	0
29	361529	4	0
29	362426	5	0
29	362551	6	0
29	362676	7	0
29	381890	8	0
29	382775	9	0
29	382900	10	0
29	383150	11	0
29	580153	12	0
29	581024	13	0
29	581149	14	0
29	603948	15	0
29	604801	16	0
29	650817	17	0
29	673368	18	0
29	674213	19	0
29	674338	20	0
29	779679	21	0
29	780520	22	0
29	780646	23	0
29	995521	24	0
29	997070	25	0
29	997195	26	0
29	1028436	27	0
29	1029975	28	0
29	1030100	29	0
29	1057342	30	0
29	1122939	31	0
29	1123064	32	0
29	1149993	33	0
29	1151493	34	0
29	1204715	35	0
29	1253116	36	0
29	1255390	37	0
29	1255515	38	0
29	1267064	39	0
29	1267196	40	0
29	1267572	41	0
29	1276939	42	0
29	1277071	43	0
29	1277197	44	0
29	1286341	45	0
29	1286473	46	0
29	1286599	47	0
29	1389939	48	0
29	1391344	49	0
29	1391469	50	0
29	1408244	51	0
29	1409640	52	0
29	1452442	53	0
38	41562	1.05182787203	0.001070004445
38	42079	1.05319547907	0.00136760704
38	104057	1.147290725989	0.094095246919
38	118352	1.175359389482	0.028068663493
38	144503	1.208309123343	0.032949733861
38	209894	1.326217665189	0.117908541846
38	421359	1.326317665189	0
38	421359	11.215967727979	0
38	444990	11.271160500319	0.05519277234
38	605099	11.271260500319	0
38	605099	16.004045756779	0
38	675055	16.004145756779	0
38	675055	20.005867213965	0
38	781023	20.005967213965	0
38	781023	23.007655855245	0
38	824081	23.100822007873	0.093166152628
38	848910	23.169937296198	0.069115288325
38	878253	23.247567670614	0.077630374416
38	1058511	23.247667670614	0
38	1058511	30.008255626177	0
38	1082881	30.047173726946	0.038918100769
38	1151804	30.047273726946	0
38	1151804	34.008278416719	0
38	1174417	34.038312631758	0.030034215039
38	1287024	34.038412631758	0
38	1287024	47.005340179898	0
38	1410031	47.005440179898	0
38	1410031	52.004836677038	0
39	394	1	0
39	341890	2	0
39	342015	3	0
39	361530	4	0
39	362427	5	0
39	362552	6	0
39	362677	7	0
39	381891	8	0
39	382776	9	0
39	382901	10	0
39	383151	11	0
39	580154	12	0
39	581025	13	0
39	581150	14	0
39	603949	15	0
39	604802	16	0
39	650818	17	0
39	673369	18	0
39	674214	19	0
39	674339	20	0
39	779680	21	0
39	780521	22	0
39	780647	23	0
39	995522	24	0
39	997071	25	0
39	997196	26	0
39	1028437	27	0
39	1029976	28	0
39	1030101	29	0
39	1057343	30	0
39	1122940	31	0
39	1123065	32	0
39	1149994	33	0
39	1151494	34	0
39	1204716	35	0
39	1253117	36	0
39	1255391	37	0
39	1255516	38	0
39	1267065	39	0
39	1267197	40	0
39	1267573	41	0
39	1276940	42	0
39	1277072	43	0
39	1277198	44	0
39	1286342	45	0
39	1286474	46	0
39	1286600	47	0
39	1389940	48	0
39	1391345	49	0
39	1391470	50	0
39	1408245	51	0
39	1409641	52	0
39	1452443	53	0
48	118517	1.175359424295	0.109052858693
48	142972	1.205414072131	0.030054647836
48	144734	1.208309162767	0.002895090636
48	210137	1.326217696295	0.117908533528
48	432571	1.326317696295	0
48	432571	11.241516701914	0
48	605315	11.241616701914	0
48	605315	16.004045795265	0
48	674920	16.004145795265	0
48	674920	20.005867190326	0
48	698646	20.039331465455	0.033464275129
48	780924	20.039431465455	0
48	780924	23.007655836891	0
48	859137	23.194641581562	0.186985744671
48	862540	23.2046159549	0.009974373338
48	903223	23.315904180462	0.111288225562
48	903724	23.317467410819	0.001563230357
48	1058610	23.317567410819	0
48	1058610	30.008255641542	0
48	1102049	30.16682567994	0.158570038398
48	1151954	30.16692567994	0
48	1151954	34.008278450583	0
48	1184164	34.069131858829	0.060853408246
48	1286871	34.069231858829	0
48	1286871	47.005340148472	0
48	1310969	47.054240241197	0.048900092725
48	1409941	47.054340241197	0
48	1409941	52.00483665576	0
49	396	1	0
49	341891	2	0
49	342016	3	0
49	361531	4	0
49	362428	5	0
49	362553	6	0
49	362678	7	0
49	381892	8	0
49	382777	9	0
49	382902	10	0
49	383152	11	0
49	580155	12	0
49	581026	13	0
49	581151	14	0
49	603950	15	0
49	604803	16	0
49	650819	17	0
49	673370	18	0
49	674215	19	0
49	674340	20	0
49	779681	21	0
49	780522	22	0
49	780648	23	0
49	995523	24	0
49	997072	25	0
49	997197	26	0
49	1028438	27	0
49	1029977	28	0
49	1030102	29	0
49	1057344	30	0
49	1122941	31	0
49	1123066	32	0
49	1149995	33	0
49	1151495	34	0
49	1204717	35	0
49	1253118	36	0
49	1255392	37	0
49	1255517	38	0
49	1267066	39	0
49	1267198	40	0
49	1267574	41	0
49	1276941	42	0
49	1277073	43	0
49	1277199	44	0
49	1286343	45	0
49	1286475	46	0
49	1286601	47	0
49	1389941	48	0
49	1391346	49	0
49	1391471	50	0
49	1408246	51	0
49	1409642	52	0
49	1452444	53	0
58	19275	1.014434678531	0.014434678531
58	20508	1.01620715271	0.001772474179
58	20967	1.016976132291	0.000768979581
58	24795	1.020118320347	0.003142188056
58	25076	1.020925501444	0.000807181097
58	26239	1.02266446883	0.001738967386
58	26963	1.023813242955	0.001148774125
58	27623	1.024566137625	0.00075289467
58	28697	1.026269371664	0.001703234039
58	29621	1.027383907328	0.001114535664
58	31483	1.029294255006	0.001910347678
58	32153	1.031245545689	0.001951290683
58	33427	1.034761892869	0.00351634718
58	33943	1.035728445395	0.000966552526
58	34453	1.036990839628	0.001262394233
58	34972	1.03819608987	0.001205250242
58	36638	1.0439628526	0.00576676273
58	39375	1.048411883224	0.004449030624
58	41736	1.051827897927	0.003416014703
58	118271	1.175359372647	0.12353147472
58	144791	1.208309170554	0.032949797907
58	210077	1.326217685566	0.117908515012
58	411142	1.326317685566	0
58	411142	11.190794365427	0
58	605183	11.190894365427	0
58	605183	16.004045769574	0
58	675160	16.004145769574	0
58	675160	20.005867247735	0
58	756139	20.581840036646	0.575972788911
58	781230	20.581940036646	0
58	781230	23.007655893906	0
58	813860	23.071247407072	0.063591513166
58	1058532	23.071347407072	0
58	1058532	30.008255628744	0
58	1151981	30.008355628744	0
58	1151981	34.008278455291	0
58	1287126	34.008378455291	0
58	1287126	47.005340215796	0
58	1410169	47.005440215796	0
58	1410169	52.004836720218	0
59	398	1	0
59	341892	2	0
59	342017	3	0
59	361532	4	0
59	362429	5	0
59	362554	6	0
59	362679	7	0
59	381893	8	0
59	382778	9	0
59	382903	10	0
59	383153	11	0
59	580156	12	0
59	581027	13	0
59	581152	14	0
59	603951	15	0
59	604804	16	0
59	650820	17	0
59	673371	18	0
59	674216	19	0
59	674341	20	0
59	779682	21	0
59	780523	22	0
59	780649	23	0
59	995524	24	0
59	997073	25	0
59	997198	26	0
59	1028439	27	0
59	1029978	28	0
59	1030103	29	0
59	1057345	30	0
59	1122942	31	0
59	1123067	32	0
59	1149996	33	0
59	1151496	34	0
59	1204718	35	0
59	1253119	36	0
59	1255393	37	0
59	1255518	38	0
59	1267067	39	0
59	1267199	40	0
59	1267575	41	0
59	1276942	42	0
59	1277074	43	0
59	1277200	44	0
59	1286344	45	0
59	1286476	46	0
59	1286602	47	0
59	1389942	48	0
59	1391347	49	0
59	1391472	50	0
59	1408247	51	0
59	1409643	52	0
59	1452445	53	0
68	118430	1.175359406434	0.116355913112
68	144638	1.208309149897	0.032949743463
68	210011	1.326217679023	0.117908529126
68	421353	1.326317679023	0
68	421353	11.21596772685	0
68	605243	11.21606772685	0
68	605243	16.00404577843	0
68	674992	16.00414577843	0
68	674992	20.0058672018	0
68	780936	20.0059672018	0
68	780936	23.007655839545	0
68	839475	23.146249795145	0.1385939556
68	862543	23.20461595536	0.058366160215
68	893049	23.285964194893	0.081348239533
68	1058493	23.286064194893	0
68	1058493	30.008255623346	0
68	1082830	30.047173715341	0.038918091995
68	1151897	30.047273715341	0
68	1151897	34.008278439742	0
68	1286916	34.008378439742	0
68	1286916	47.005340162529	0
68	1409980	47.005440162529	0
68	1409980	52.004836666422	0
68	1425383	52.026842070346	0.022005403924
69	400	1	0
69	341893	2	0
69	342018	3	0
69	361533	4	0
69	362430	5	0
69	362555	6	0
69	362680	7	0