version 2
run General-0-20120531-16:21:36-4088
attr configname General
attr datetime 20120531-16:21:36
attr experiment General
attr inifile omnetpp.ini
attr iterationvars ""
attr iterationvars2 $repetition=0
attr measurement ""
attr network DataCentricNet
attr processid 4088
attr repetition 0
attr replication #0
attr resultdir results
attr runnumber 0
attr seedset 0

vector 400  DataCentricNet.dataCentricNetworkMan  ControlPackets  ETV
vector 401  DataCentricNet.dataCentricNetworkMan  controlPacketFrequency  ETV
400	207	1	1
400	208	1	2
400	209	1	3
400	210	1	4
400	211	1	5
400	212	1	6
400	213	1	7
400	214	1	8
400	215	1	9
400	216	1	10
400	217	1	11
400	218	1	12
400	219	1	13
400	220	1	14
400	221	1	15
400	222	1	16
400	223	1	17
400	224	1	18
400	225	1	19
400	226	1	20
400	227	1	21
400	228	1	22
400	229	1	23
400	230	1	24
400	231	1	25
400	232	1	26
400	233	1	27
400	234	1	28
400	235	1	29
400	236	1	30
400	237	1	31
400	238	1	32
400	239	1	33
400	240	1	34
400	241	1	35
400	242	1	36
400	243	1	37
400	244	1	38
400	245	1	39
400	246	1	40
400	247	1	41
400	248	1	42
400	249	1	43
400	250	1	44
400	251	1	45
400	252	1	46
400	253	1	47
400	254	1	48
400	255	1	49
400	256	1	50
400	257	1	51
400	258	1	52
400	259	1	53
400	260	1	54
400	261	1	55
400	262	1	56
400	263	1	57
400	264	1	58
400	265	1	59
400	266	1	60
400	267	1	61
400	268	1	62
400	269	1	63
400	270	1	64
400	271	1	65
400	272	1	66
400	273	1	67
400	274	1	68
400	275	1	69
400	276	1	70
400	277	1	71
400	278	1	72
400	279	1	73
400	280	1	74
400	281	1	75
400	282	1	76
400	283	1	77
400	284	1	78
400	285	1	79
400	286	1	80
400	287	1	81
400	288	1	82
400	289	1	83
400	290	1	84
400	291	1	85
400	292	1	86
400	293	1	87
400	294	1	88
400	295	1	89
400	296	1	90
400	297	1	91
400	298	1	92
400	299	1	93
400	300	1	94
400	301	1	95
400	302	1	96
400	303	1	97
400	304	1	98
400	305	1	99
400	306	1	100
400	3571	1.003357879433	101
400	7099	1.00450100036	102
400	10151	1.005501197157	1
400	10735	1.005693102171	2
400	12297	1.00612102908	3
400	20484	1.009633610495	4
400	21137	1.009849838699	5
400	22608	1.012113634636	1
400	23276	1.013713620494	2
400	23278	1.013713620494	3
400	23279	1.013713620494	4
400	23288	1.013713624636	5
400	23289	1.013713624636	6
400	23291	1.013713624636	7
400	23730	1.01424986284	8
400	24182	1.01525371464	1
400	24656	1.016517703674	2
400	24667	1.016517707816	3
400	24669	1.016517707816	4
400	24889	1.01704988284	5
400	25655	1.017584447396	6
400	25873	1.017708113427	7
400	25880	1.017708117569	8
400	25990	1.017738463761	9
400	26000	1.017738467903	10
400	26224	1.018295419775	11
400	26231	1.018295423917	12
400	26557	1.019004209862	13
400	26667	1.019030372289	14
400	26677	1.019030376431	15
400	26898	1.019892189373	16
400	27148	1.021068613423	1
400	27150	1.021068613423	2
400	27159	1.021068617565	3
400	27161	1.021068617565	4
400	27162	1.021068617565	5
400	27497	1.02173931241	6
400	27612	1.021922228697	7
400	27624	1.021922232839	8
400	27625	1.021922232839	9
400	28192	1.022823366766	10
400	28641	1.023352261394	11
400	28752	1.023404890416	12
400	28762	1.023404894558	13
400	29209	1.024176063946	14
400	29213	1.024176068088	15
400	30199	1.024888447395	16
400	30308	1.024918942997	17
400	30886	1.025680735124	1
400	30897	1.025680739266	2
400	30899	1.025680739266	3
400	31020	1.025896338661	4
400	31032	1.025896342803	5
400	31245	1.026209540572	6
400	31252	1.026209544714	7
400	31698	1.027066773947	8
400	32240	1.027305401785	9
400	32251	1.027305405927	10
400	32608	1.027666908288	11
400	32859	1.028442027834	12
400	33314	1.029040376083	13
400	33766	1.029288457395	14
400	34104	1.029721659065	15
400	34110	1.029721663207	16
400	34435	1.029922475047	17
400	35428	1.030373102208	1
400	36363	1.032125910567	2
400	36364	1.032125910567	3
400	36375	1.032125914709	4
400	36376	1.032125914709	5
400	37471	1.032824457395	6
400	38034	1.033621233117	7
400	38036	1.033621233117	8
400	38047	1.033621237259	9
400	38049	1.033621237259	10
400	38839	1.034469387766	11
400	38851	1.034469391908	12
400	38956	1.034512842069	13
400	38958	1.034512842069	14
400	38969	1.034512846211	15
400	38971	1.034512846211	16
400	39530	1.035554052998	1
400	40333	1.036278243848	2
400	40342	1.03627824799	3
400	40343	1.03627824799	4
400	41006	1.037121487622	5
400	41346	1.03754005194	6
400	41353	1.037540056082	7
400	41462	1.037547311327	8
400	41463	1.037547311327	9
400	41710	1.038398151297	10
400	41721	1.038398155439	11
400	41723	1.038398155439	12
400	42050	1.038662514734	13
400	42052	1.038662514734	14
400	42062	1.038662518876	15
400	42616	1.038957917766	16
400	42625	1.038957921908	17
400	42944	1.039285099325	18
400	42957	1.039285103467	19
400	43066	1.039386854393	20
400	43072	1.039386858535	21
400	43433	1.040023957587	1
400	43539	1.040132193432	2
400	43549	1.040132197574	3
400	44218	1.040988351073	4
400	44219	1.040988351073	5
400	44230	1.040988355215	6
400	44337	1.041037132162	7
400	44347	1.041037136304	8
400	44450	1.04115097762	9
400	44458	1.041150981762	10
400	45157	1.042110151734	11
400	46054	1.04299786427	12
400	46056	1.04299786427	13
400	46066	1.042997868412	14
400	46284	1.043169508424	15
400	46296	1.043169512566	16
400	46646	1.04372697762	17
400	46659	1.043726981762	18
400	47298	1.044018982377	19
400	47303	1.044018986519	20
400	47415	1.044133237406	21
400	47428	1.044133241548	22
400	47874	1.044829074601	23
400	47886	1.044829078743	24
400	48096	1.044867970689	25
400	48336	1.045068608999	1
400	48681	1.045461506666	2
400	48799	1.045494579524	3
400	48801	1.045494579524	4
400	48812	1.045494583666	5
400	49036	1.04587949185	6
400	49042	1.045879495992	7
400	49491	1.046704675693	8
400	49502	1.046704679835	9
400	49619	1.046705512566	10
400	49725	1.046738205784	11
400	49727	1.046738205784	12
400	49735	1.046738209926	13
400	49736	1.046738209926	14
400	50084	1.0472679773	15
400	50095	1.047267981442	16
400	50097	1.047267981442	17
400	50307	1.047327953445	18
400	50531	1.047497412902	19
400	50540	1.047497417044	20
400	50890	1.047949109031	21
400	50901	1.047949113173	22
400	51358	1.048505097899	23
400	51367	1.048505102041	24
400	51688	1.048723165088	25
400	51690	1.048723165088	26
400	51700	1.04872316923	27
400	51701	1.04872316923	28
400	52065	1.04915737832	29
400	52529	1.049703388972	30
400	52540	1.049703393114	31
400	52542	1.049703393114	32
400	52906	1.050290941135	1
400	53017	1.050354135783	2
400	53018	1.050354135783	3
400	53029	1.050354139925	4
400	53387	1.050689711426	5
400	54022	1.050919561448	6
400	54361	1.050988671866	7
400	54374	1.050988676008	8
400	54716	1.051384220142	9
400	54718	1.051384220142	10
400	54728	1.051384224284	11
400	54730	1.051384224284	12
400	55614	1.051773087146	13
400	56527	1.052741783554	14
400	56538	1.052741787696	15
400	56669	1.052873203394	16
400	59091	1.05457140611	17
400	59093	1.05457140611	18
400	59103	1.054571410252	19
400	59104	1.054571410252	20
400	59106	1.054571410252	21
400	59574	1.054821008348	22
400	60265	1.055844044117	1
400	60276	1.055844048259	2
400	60736	1.056380759908	3
400	60744	1.05638076405	4
400	61084	1.056723592613	5
400	61305	1.056830684199	6
400	62864	1.057717008348	7
400	63209	1.057967937827	8
400	63990	1.059056219253	9
400	63992	1.059056219253	10
400	64002	1.059056223395	11
400	64208	1.059234629743	12
400	64331	1.059421894378	13
400	64680	1.059842308733	14
400	64691	1.059842312875	15
400	64896	1.059884746787	16
400	65235	1.060236759908	1
400	65243	1.06023676405	2
400	65711	1.061183937827	3
400	66043	1.061629082274	4
400	66045	1.061629082274	5
400	66055	1.061629086416	6
400	66056	1.061629086416	7
400	67188	1.062957894378	8
400	67198	1.06295789852	9
400	67307	1.063034877403	10
400	67318	1.063034881545	11
400	68200	1.064073441187	12
400	68861	1.064518687492	13
400	68872	1.064518691634	14
400	68990	1.064553023796	15
400	69550	1.065284062281	1
400	70010	1.066052665058	2
400	70022	1.0660526692	3
400	70023	1.0660526692	4
400	70929	1.067305897837	5
400	70939	1.067305901979	6
400	71274	1.067637878675	7
400	71285	1.067637882817	8
400	71825	1.068009093936	9
400	71837	1.068009098078	10
400	71838	1.068009098078	11
400	72604	1.068723074088	12
400	72617	1.06872307823	13
400	74099	1.071202190785	1
400	74325	1.071455955976	2
400	74336	1.071455960118	3
400	74338	1.071455960118	4
400	77474	1.075934111345	1
400	77476	1.075934111345	2
400	77487	1.075934115487	3
400	78164	1.078729793523	4
400	78171	1.078729797665	5
400	78846	1.0814042571	1
400	78858	1.081404261242	2
400	78859	1.081404261242	3
400	80341	2	1
400	80341	2	2
400	80344	2	3
400	80344	2	4
400	80532	2.004007186299	5
400	80977	2.006071293975	1
400	81433	2.008087206299	2
400	81876	2.009191303975	3
400	82342	2.012788978024	1
400	82992	2.014252294838	2
400	83435	2.015199313973	1
400	84552	2.019181359748	2
400	84879	2.019599323973	3
400	85448	2.021796988023	1
400	86563	2.024584217496	2
400	86999	2.025283075123	1
400	88118	2.029043089265	2
400	90101	2.03743951179	1
400	90556	2.043817938074	1
401	8445	1.005	102
401	21239	1.01	5
401	24059	1.015	8
401	27003	1.02	16
401	30409	1.025	17
401	34656	1.03	17
401	39079	1.035	16
401	43409	1.04	21
401	48313	1.045	25
401	52659	1.05	32
401	59777	1.055	22
401	64993	1.06	16
401	69426	1.065	15
401	73518	1.07	13
401	77014	1.075	4
401	78502	1.08	5
401	79409	1.085	3
401	80304	1.09	0
401	80860	2.005	5
401	82201	2.01	3
401	83423	2.015	2
401	85202	2.02	3
401	86767	2.025	2
401	88869	2.03	2
401	89536	2.035	0
401	90429	2.04243951179	1
401	90871	2.04743951179	1
401	91313	2.05243951179	0
