file 74690 1345634803                                           
version 2
run General-0-20120822-12:25:13-3212
attr configname General
attr datetime 20120822-12:25:13
attr experiment General
attr inifile omnetpp.ini
attr iterationvars ""
attr iterationvars2 $repetition=0
attr measurement ""
attr network DataCentricNet
attr processid 3212
attr repetition 0
attr replication #0
attr resultdir results
attr runnumber 0
attr seedset 0

vector 1257  DataCentricNet.dataCentricNetworkMan  reinforcementPacketFrequency  ETV
vector 1259  DataCentricNet.dataCentricNetworkMan  breakagePacketFrequency  ETV
vector 58  DataCentricNet.host[5].net  InterestInterDepartureTimesVector  ETV
vector 158  DataCentricNet.host[15].net  InterestInterDepartureTimesVector  ETV
vector 498  DataCentricNet.host[49].net  InterestInterDepartureTimesVector  ETV
vector 28  DataCentricNet.host[2].net  InterestInterDepartureTimesVector  ETV
vector 1248  DataCentricNet.host[124].net  InterestInterDepartureTimesVector  ETV
vector 568  DataCentricNet.host[56].net  InterestInterDepartureTimesVector  ETV
vector 558  DataCentricNet.host[55].net  InterestInterDepartureTimesVector  ETV
vector 368  DataCentricNet.host[36].net  InterestInterDepartureTimesVector  ETV
vector 118  DataCentricNet.host[11].net  InterestInterDepartureTimesVector  ETV
vector 168  DataCentricNet.host[16].net  InterestInterDepartureTimesVector  ETV
vector 818  DataCentricNet.host[81].net  InterestInterDepartureTimesVector  ETV
vector 548  DataCentricNet.host[54].net  InterestInterDepartureTimesVector  ETV
vector 428  DataCentricNet.host[42].net  InterestInterDepartureTimesVector  ETV
vector 658  DataCentricNet.host[65].net  InterestInterDepartureTimesVector  ETV
vector 108  DataCentricNet.host[10].net  InterestInterDepartureTimesVector  ETV
vector 258  DataCentricNet.host[25].net  InterestInterDepartureTimesVector  ETV
vector 938  DataCentricNet.host[93].net  InterestInterDepartureTimesVector  ETV
vector 728  DataCentricNet.host[72].net  InterestInterDepartureTimesVector  ETV
vector 998  DataCentricNet.host[99].net  InterestInterDepartureTimesVector  ETV
vector 918  DataCentricNet.host[91].net  InterestInterDepartureTimesVector  ETV
vector 1098  DataCentricNet.host[109].net  InterestInterDepartureTimesVector  ETV
vector 1008  DataCentricNet.host[100].net  InterestInterDepartureTimesVector  ETV
vector 588  DataCentricNet.host[58].net  InterestInterDepartureTimesVector  ETV
vector 598  DataCentricNet.host[59].net  InterestInterDepartureTimesVector  ETV
vector 1228  DataCentricNet.host[122].net  InterestInterDepartureTimesVector  ETV
vector 1068  DataCentricNet.host[106].net  InterestInterDepartureTimesVector  ETV
vector 468  DataCentricNet.host[46].net  InterestInterDepartureTimesVector  ETV
vector 418  DataCentricNet.host[41].net  InterestInterDepartureTimesVector  ETV
vector 38  DataCentricNet.host[3].net  InterestInterDepartureTimesVector  ETV
vector 838  DataCentricNet.host[83].net  InterestInterDepartureTimesVector  ETV
vector 858  DataCentricNet.host[85].net  InterestInterDepartureTimesVector  ETV
vector 808  DataCentricNet.host[80].net  InterestInterDepartureTimesVector  ETV
vector 1128  DataCentricNet.host[112].net  InterestInterDepartureTimesVector  ETV
vector 148  DataCentricNet.host[14].net  InterestInterDepartureTimesVector  ETV
vector 628  DataCentricNet.host[62].net  InterestInterDepartureTimesVector  ETV
vector 458  DataCentricNet.host[45].net  InterestInterDepartureTimesVector  ETV
vector 778  DataCentricNet.host[77].net  InterestInterDepartureTimesVector  ETV
vector 8  DataCentricNet.host[0].net  InterestInterDepartureTimesVector  ETV
vector 1038  DataCentricNet.host[103].net  InterestInterDepartureTimesVector  ETV
vector 908  DataCentricNet.host[90].net  InterestInterDepartureTimesVector  ETV
vector 578  DataCentricNet.host[57].net  InterestInterDepartureTimesVector  ETV
vector 18  DataCentricNet.host[1].net  InterestInterDepartureTimesVector  ETV
vector 188  DataCentricNet.host[18].net  InterestInterDepartureTimesVector  ETV
vector 1138  DataCentricNet.host[113].net  InterestInterDepartureTimesVector  ETV
vector 748  DataCentricNet.host[74].net  InterestInterDepartureTimesVector  ETV
vector 968  DataCentricNet.host[96].net  InterestInterDepartureTimesVector  ETV
vector 798  DataCentricNet.host[79].net  InterestInterDepartureTimesVector  ETV
vector 138  DataCentricNet.host[13].net  InterestInterDepartureTimesVector  ETV
vector 68  DataCentricNet.host[6].net  InterestInterDepartureTimesVector  ETV
vector 648  DataCentricNet.host[64].net  InterestInterDepartureTimesVector  ETV
vector 298  DataCentricNet.host[29].net  InterestInterDepartureTimesVector  ETV
vector 1188  DataCentricNet.host[118].net  InterestInterDepartureTimesVector  ETV
vector 78  DataCentricNet.host[7].net  InterestInterDepartureTimesVector  ETV
vector 718  DataCentricNet.host[71].net  InterestInterDepartureTimesVector  ETV
vector 338  DataCentricNet.host[33].net  InterestInterDepartureTimesVector  ETV
vector 378  DataCentricNet.host[37].net  InterestInterDepartureTimesVector  ETV
vector 1078  DataCentricNet.host[107].net  InterestInterDepartureTimesVector  ETV
vector 278  DataCentricNet.host[27].net  InterestInterDepartureTimesVector  ETV
vector 958  DataCentricNet.host[95].net  InterestInterDepartureTimesVector  ETV
vector 738  DataCentricNet.host[73].net  InterestInterDepartureTimesVector  ETV
vector 268  DataCentricNet.host[26].net  InterestInterDepartureTimesVector  ETV
vector 528  DataCentricNet.host[52].net  InterestInterDepartureTimesVector  ETV
vector 218  DataCentricNet.host[21].net  InterestInterDepartureTimesVector  ETV
vector 708  DataCentricNet.host[70].net  InterestInterDepartureTimesVector  ETV
vector 878  DataCentricNet.host[87].net  InterestInterDepartureTimesVector  ETV
vector 678  DataCentricNet.host[67].net  InterestInterDepartureTimesVector  ETV
vector 248  DataCentricNet.host[24].net  InterestInterDepartureTimesVector  ETV
vector 618  DataCentricNet.host[61].net  InterestInterDepartureTimesVector  ETV
vector 1088  DataCentricNet.host[108].net  InterestInterDepartureTimesVector  ETV
vector 358  DataCentricNet.host[35].net  InterestInterDepartureTimesVector  ETV
vector 688  DataCentricNet.host[68].net  InterestInterDepartureTimesVector  ETV
vector 1198  DataCentricNet.host[119].net  InterestInterDepartureTimesVector  ETV
vector 178  DataCentricNet.host[17].net  InterestInterDepartureTimesVector  ETV
vector 488  DataCentricNet.host[48].net  InterestInterDepartureTimesVector  ETV
vector 98  DataCentricNet.host[9].net  InterestInterDepartureTimesVector  ETV
vector 518  DataCentricNet.host[51].net  InterestInterDepartureTimesVector  ETV
vector 308  DataCentricNet.host[30].net  InterestInterDepartureTimesVector  ETV
vector 288  DataCentricNet.host[28].net  InterestInterDepartureTimesVector  ETV
vector 318  DataCentricNet.host[31].net  InterestInterDepartureTimesVector  ETV
vector 448  DataCentricNet.host[44].net  InterestInterDepartureTimesVector  ETV
vector 948  DataCentricNet.host[94].net  InterestInterDepartureTimesVector  ETV
vector 208  DataCentricNet.host[20].net  InterestInterDepartureTimesVector  ETV
vector 638  DataCentricNet.host[63].net  InterestInterDepartureTimesVector  ETV
vector 1118  DataCentricNet.host[111].net  InterestInterDepartureTimesVector  ETV
vector 788  DataCentricNet.host[78].net  InterestInterDepartureTimesVector  ETV
vector 88  DataCentricNet.host[8].net  InterestInterDepartureTimesVector  ETV
vector 1178  DataCentricNet.host[117].net  InterestInterDepartureTimesVector  ETV
vector 238  DataCentricNet.host[23].net  InterestInterDepartureTimesVector  ETV
vector 328  DataCentricNet.host[32].net  InterestInterDepartureTimesVector  ETV
vector 1058  DataCentricNet.host[105].net  InterestInterDepartureTimesVector  ETV
vector 408  DataCentricNet.host[40].net  InterestInterDepartureTimesVector  ETV
vector 388  DataCentricNet.host[38].net  InterestInterDepartureTimesVector  ETV
vector 868  DataCentricNet.host[86].net  InterestInterDepartureTimesVector  ETV
vector 198  DataCentricNet.host[19].net  InterestInterDepartureTimesVector  ETV
vector 848  DataCentricNet.host[84].net  InterestInterDepartureTimesVector  ETV
vector 508  DataCentricNet.host[50].net  InterestInterDepartureTimesVector  ETV
vector 1148  DataCentricNet.host[114].net  InterestInterDepartureTimesVector  ETV
vector 48  DataCentricNet.host[4].net  InterestInterDepartureTimesVector  ETV
vector 398  DataCentricNet.host[39].net  InterestInterDepartureTimesVector  ETV
vector 1238  DataCentricNet.host[123].net  InterestInterDepartureTimesVector  ETV
vector 898  DataCentricNet.host[89].net  InterestInterDepartureTimesVector  ETV
vector 1218  DataCentricNet.host[121].net  InterestInterDepartureTimesVector  ETV
vector 1208  DataCentricNet.host[120].net  InterestInterDepartureTimesVector  ETV
vector 348  DataCentricNet.host[34].net  InterestInterDepartureTimesVector  ETV
vector 1168  DataCentricNet.host[116].net  InterestInterDepartureTimesVector  ETV
vector 478  DataCentricNet.host[47].net  InterestInterDepartureTimesVector  ETV
vector 828  DataCentricNet.host[82].net  InterestInterDepartureTimesVector  ETV
vector 768  DataCentricNet.host[76].net  InterestInterDepartureTimesVector  ETV
vector 1048  DataCentricNet.host[104].net  InterestInterDepartureTimesVector  ETV
vector 928  DataCentricNet.host[92].net  InterestInterDepartureTimesVector  ETV
vector 438  DataCentricNet.host[43].net  InterestInterDepartureTimesVector  ETV
vector 988  DataCentricNet.host[98].net  InterestInterDepartureTimesVector  ETV
vector 538  DataCentricNet.host[53].net  InterestInterDepartureTimesVector  ETV
vector 698  DataCentricNet.host[69].net  InterestInterDepartureTimesVector  ETV
vector 758  DataCentricNet.host[75].net  InterestInterDepartureTimesVector  ETV
vector 1108  DataCentricNet.host[110].net  InterestInterDepartureTimesVector  ETV
vector 1028  DataCentricNet.host[102].net  InterestInterDepartureTimesVector  ETV
vector 228  DataCentricNet.host[22].net  InterestInterDepartureTimesVector  ETV
vector 128  DataCentricNet.host[12].net  InterestInterDepartureTimesVector  ETV
vector 978  DataCentricNet.host[97].net  InterestInterDepartureTimesVector  ETV
vector 1018  DataCentricNet.host[101].net  InterestInterDepartureTimesVector  ETV
vector 888  DataCentricNet.host[88].net  InterestInterDepartureTimesVector  ETV
vector 668  DataCentricNet.host[66].net  InterestInterDepartureTimesVector  ETV
vector 1158  DataCentricNet.host[115].net  InterestInterDepartureTimesVector  ETV
vector 608  DataCentricNet.host[60].net  InterestInterDepartureTimesVector  ETV
vector 1260  DataCentricNet.dataCentricNetworkMan  modulesDownVector  ETV
vector 529  DataCentricNet.host[52].net  StabilityVector  ETV
vector 1258  DataCentricNet.dataCentricNetworkMan  dataPacketE2EDelay  ETV
8	10922 211 40146 357567 1.037508249219 3.00277358667 6 0 0.078386429683 0.182336563073 0.011772044681607
18	11133 258 40221 357729 1.03750825891 3.002773604036 7 0 0.064415501295 0.182336559568 0.008937008493132
28	11391 298 28982 357696 1.022798613317 3.002773599787 8 0 0.078386433299 0.196735485809 0.012322629529984
38	11689 295 33518 357570 1.029594645571 3.002773587068 8 0 0.078386432006 0.190303930499 0.011810788317721
48	11984 297 71650 357603 1.071433973253 3.00277359131 8 0 0.078386448446 0.173134242631 0.008229766464371
58	12281 458 21990 357783 1.014669812123 3.002773609414 12 0 0.078386451235 0.218742518001 0.012117083088691
68	12739 258 40257 357537 1.037508262174 3.002773581487 7 0 0.078386442639 0.182336547689 0.010665118599414
78	12997 218 40272 357636 1.037508262802 3.002773595072 6 0 0.078386422439 0.182336558738 0.011772042390967
88	13215 340 59378 357609 1.058132024006 3.002773591918 9 0 0.066020789958 0.18233653151 0.0066988742518806
98	13555 218 57424 357813 1.055874488234 3.002773613342 6 0 0.078386457476 0.166209379878 0.010707597017175
108	13773 305 29099 357531 1.022798627447 3.002773580326 8 0 0.078386464672 0.196735496072 0.012322629953643
118	14078 305 29042 357726 1.022798621065 3.002773603489 8 0 0.07838643404 0.196735487614 0.012322628639282
128	14383 266 75619 357795 1.075940587248 3.002773611407 7 0 0.174553310471 0.340762680187 0.03930465515743
138	14649 258 40254 357843 1.03750826166 3.002773622194 7 0 0.078386423575 0.184783668245 0.011161310266382
148	14907 223 35291 357750 1.031639887791 3.00277360605 6 0 0.078386424313 0.19030394654 0.012266587821432
158	15130 303 28922 357654 1.022798608483 3.002773596651 8 0 0.078386430983 0.196735474534 0.012322628477532
168	15433 263 29066 357597 1.022798624369 3.002773590202 7 0 0.078386451392 0.196735496568 0.012335134543478
178	15696 266 57416 357690 1.055874485934 3.002773599507 7 0 0.064415420508 0.16620938192 0.0087016988633459
188	15962 264 40224 357798 1.03750825916 3.002773611423 7 0 0.064415525947 0.182336576206 0.0087841705864907
198	16226 262 71557 357513 1.071433960778 3.002773576873 7 0 0.078386472121 0.175297322918 0.0099905478991244
208	16488 264 58276 357633 1.05726559901 3.002773595044 7 0 0.078386477557 0.166209379044 0.0089181492408533
218	16752 223 40329 357573 1.037508269019 3.002773587977 6 0 0.078386435048 0.182336553624 0.011772042419352
228	16975 224 75613 357660 1.075940583791 3.002773597494 6 0 0.06441541693 0.166209388881 0.0088357977552852
238	17199 261 65449 357495 1.064353201899 3.002773572148 7 0 0.078386452846 0.181234227707 0.011128059024392
248	17460 304 54007 357642 1.052533077798 3.002773595565 8 0 0.078386448312 0.173134233746 0.0090087609611243
258	17764 303 29108 357804 1.022798628437 3.0027736118 8 0 0.078386433262 0.196735500118 0.012322629312571
268	18067 224 40308 357552 1.037508266674 3.002773585421 6 0 0.078386433516 0.182336550413 0.011772042042289
278	18291 221 40293 357615 1.037508266002 3.00277359219 6 0 0.078386422719 0.182336535712 0.011772040310712
288	18512 306 57456 357738 1.055874496614 3.002773604962 8 0 0.064415419569 0.166209386334 0.007084163715172
298	18818 266 40266 357786 1.037508262371 3.002773610076 7 0 0.064415512146 0.182336567808 0.0089370099968028
308	19084 308 57439 357678 1.055874492115 3.002773598228 8 0 0.177675338427 0.343884725518 0.040270225641701
318	19392 266 57459 357693 1.055874497092 3.002773599535 7 0 0.078386477287 0.166209379083 0.010610932040243
328	19658 264 65467 357498 1.064353204422 3.002773573457 7 0 0.07838644979 0.181234226877 0.011128058439626
338	19922 265 40278 357480 1.037508262995 3.002773567828 7 0 0.078386457181 0.18233656489 0.010665120804152
348	20187 223 75433 357621 1.075940542763 3.002773592452 6 0 0.078386431849 0.181234224173 0.010663904432533
358	20410 347 57404 357837 1.055874483361 3.002773619175 9 0 0.135567101595 0.301776473491 0.02593853396144
368	20757 386 29024 357501 1.022798618072 3.002773574847 10 0 0.078386457664 0.196735485409 0.01228045655994
378	21143 266 40281 357792 1.037508264593 3.002773610342 7 0 0.064415510392 0.182336566952 0.0089370097202032
388	21409 265 71529 357492 1.071433956739 3.002773571971 7 0 0.078386463272 0.175297316443 0.0099905463773067
398	21674 306 71669 357588 1.071433975498 3.002773589677 8 0 0.078386457722 0.173134240497 0.0082297674121609
408	21980 345 66083 357504 1.0655359226 3.002773575275 9 0 0.078386483365 0.180245194212 0.0081632320115971
418	22325 305 33515 357591 1.02959464556 3.002773589751 8 0 0.078386431095 0.190303930947 0.011810788340865
428	22630 298 29081 357594 1.022798626201 3.002773589969 8 0 0.07838645445 0.19673551166 0.0123226303193
438	22928 221 75553 357759 1.07594056791 3.002773606806 6 0 0.07838641756 0.182336532292 0.010568404882919
448	23149 266 57462 357831 1.055874497643 3.002773616693 7 0 0.064415417023 0.166209382571 0.0084958117917096
458	23415 222 35336 357732 1.031639891505 3.00277360404 6 0 0.078386427171 0.190303961295 0.012266588203233
468	23637 303 29201 357828 1.022798641872 3.002773616675 8 0 0.078386442842 0.196735519077 0.012322629745214
478	23940 264 75505 357687 1.075940556062 3.00277359926 7 0 0.064415481527 0.182336547902 0.0081138480046314
488	24204 390 57419 357846 1.055874486817 3.002773622567 10 0 0.064415430092 0.166209372987 0.0064607855987578
498	24594 345 28964 357561 1.022798611724 3.00277358633 9 0 0.078386444989 0.196735484544 0.012298001669231
508	24939 265 71570 357510 1.071433961608 3.002773576713 7 0 0.078386476615 0.1752973269 0.0099905487716631
518	25204 379 57434 357834 1.05587449056 3.002773616972 10 0 0.135567096647 0.301776473251 0.025143815465472
528	25583 305 40320 383746 1.037508268659 3.036152470031 8 0 0.078386462763 0.212678789412 0.011585771498856
529	25888 32 357336 357337 2 3 2 0 1 1 1
538	25920 224 75565 357681 1.075940569548 3.002773598245 6 0 0.078386422179 0.182336520352 0.010109979887826
548	26144 305 29078 357714 1.022798625358 3.002773602783 8 0 0.078386442188 0.196735508989 0.012322630804548
558	26449 347 29015 357546 1.022798616981 3.002773584711 9 0 0.078386448607 0.196735487234 0.012294973832273
568	26796 305 29009 357702 1.022798615694 3.002773601031 8 0 0.078386434668 0.196735488485 0.012322629913799
578	27101 263 40209 357576 1.037508257249 3.002773588752 7 0 0.07838642956 0.182336549369 0.01066511732773
588	27364 305 29165 357762 1.022798635858 3.002773606809 8 0 0.078386447685 0.196735528536 0.012322630341035
598	27669 305 29171 357744 1.022798637265 3.002773605642 8 0 0.078386451113 0.196735539272 0.012322630795595
608	27974 350 75667 357780 1.075940598218 3.002773608907 9 0 0.038982918745 0.150834733841 0.0041576345072862
618	28324 305 57398 357801 1.055874477402 3.00277361174 8 0 0.064415432677 0.166209373827 0.0078923360667437
628	28629 223 35333 357735 1.031639891388 3.002773604315 6 0 0.07838642946 0.19030395583 0.012266588777802
638	28852 265 58294 357585 1.057265603628 3.002773589569 7 0 0.078386489239 0.166209384922 0.0089181503059558
648	29117 222 40263 357525 1.037508262255 3.00277357922 6 0 0.078386444424 0.182336566797 0.011772045302206
658	29339 306 29084 357639 1.022798626396 3.002773595158 8 0 0.078386449547 0.196735515893 0.012322630287423
668	29645 267 75643 357705 1.075940590917 3.002773601243 7 0 0.088356557754 0.249833450399 0.016443523909237
678	29912 339 54004 357618 1.052533077626 3.002773592329 9 0 0.07838644376 0.173134236301 0.008928353770109
688	30251 305 57407 357720 1.055874484184 3.002773603225 8 0 0.078386420883 0.173134224431 0.0089746285610653
698	30556 224 75586 357600 1.075940574543 3.002773591079 6 0 0.078386457259 0.173134241121 0.0094670473617835
708	30780 222 40332 357543 1.037508269047 3.002773584179 6 0 0.07838643572 0.18233653919 0.011772041030421
718	31002 264 40275 357717 1.037508262912 3.002773602846 7 0 0.064415497877 0.182336559979 0.0089370081109197
728	31266 304 29123 357771 1.02279863066 3.002773608138 8 0 0.078386439438 0.196735504996 0.012322629316088
738	31570 223 40299 357564 1.037508266141 3.002773586377 6 0 0.078386430715 0.182336547897 0.0117720416296
748	31793 349 40233 357849 1.037508259724 3.002773623095 9 0 0.048225697643 0.184783668833 0.0066588578776723
758	32142 307 75589 357582 1.075940575063 3.002773589089 8 0 0.078386475915 0.180245194212 0.0086229240865212
768	32449 308 75517 357630 1.075940559185 3.002773594701 8 0 0.064551372536 0.182336543475 0.0073193298623339
778	32757 222 35372 357747 1.031639895435 3.00277360585 6 0 0.07838643124 0.190303961267 0.012266589256933
788	32979 305 59372 357624 1.058132020097 3.002773594216 8 0 0.078386433255 0.182336525087 0.0083316529066158
798	33284 264 40248 357789 1.037508261403 3.002773610115 7 0 0.064415516135 0.182336571089 0.0089370104601477
808	33548 306 33554 357627 1.029594651451 3.002773594373 8 0 0.078386425299 0.190303927987 0.011810787710426
818	33854 265 29072 357777 1.022798625028 3.002773608525 7 0 0.108716164665 0.196735501181 0.018029926996129
828	34119 265 75511 357549 1.075940558339 3.002773585052 7 0 0.078386436304 0.182336542227 0.009105474348
838	34384 306 33521 357558 1.029594646294 3.002773585898 8 0 0.078386430638 0.190303922822 0.011810787359951
848	34690 265 71560 357522 1.071433960825 3.002773577781 7 0 0.078386474954 0.175297329579 0.0099905491210697
858	34955 304 33524 357612 1.029594646493 3.002773592028 8 0 0.078386430042 0.190303930252 0.01181078822082
868	35259 264 71554 357519 1.071433960705 3.002773577598 7 0 0.078386459774 0.175297309973 0.0099905454829758
878	35523 264 40335 357675 1.037508269227 3.002773598066 7 0 0.078386412943 0.182336530894 0.011037481225124
888	35787 304 75640 357672 1.075940590744 3.002773598053 8 0 0.088356567643 0.249833450399 0.015285121617126
898	36091 224 74628 357507 1.074967807681 3.002773576347 6 0 0.078386463813 0.181234224035 0.011697954843559
908	36315 223 40191 357540 1.037508253923 3.002773584135 6 0 0.078386430452 0.182336561292 0.011772043861973
918	36538 346 29135 357645 1.022798631277 3.002773595811 9 0 0.078386453721 0.196735485078 0.011616047225054
928	36884 264 75547 357579 1.075940565719 3.002773588763 7 0 0.078386440868 0.182336534717 0.0091054745915833
938	37148 303 29117 357699 1.022798629513 3.002773600179 8 0 0.078386448535 0.196735523452 0.012322630784008
948	37451 265 57477 357684 1.055874500049 3.002773598386 7 0 0.064415400848 0.166209383952 0.0087016986754752
958	37716 265 40296 357840 1.037508266007 3.002773620073 7 0 0.064415542259 0.182336579599 0.0087841724232247
968	37981 224 40245 357669 1.037508261243 3.002773597909 6 0 0.078386417032 0.182336554559 0.011772041851999
978	38205 223 75622 357663 1.075940587254 3.002773597702 6 0 0.0644154044 0.166209387861 0.0088357972388791
988	38428 308 75559 357753 1.075940568959 3.002773606124 8 0 0.047626879866 0.182336528704 0.0070783816814098
998	38736 306 29126 357825 1.022798630965 3.002773616582 8 0 0.078386430886 0.196735500337 0.012322629485896
1008	39042 314 29150 357774 1.022798633844 3.002773608461 8 0 0.078386442933 0.196735513603 0.012322629677064
1018	39356 273 75628 357657 1.075940587829 3.002773596774 7 0 0.088356558886 0.249833450399 0.016443524122716
1028	39629 272 75601 357651 1.075940580563 3.002773596252 7 0 0.177675336956 0.343884725518 0.040404323174209
1038	39901 228 40155 357810 1.03750824984 3.002773613107 6 0 0.07838642027 0.184783663344 0.011783430833381
1048	40129 271 75523 357648 1.075940559919 3.00277359619 7 0 0.078386421214 0.182336538224 0.0091054725345161
1058	40400 268 66065 357486 1.065535918704 3.002773571379 7 0 0.078386478867 0.175297320346 0.0097831237097228
1068	40668 310 29198 357816 1.022798641709 3.002773614147 8 0 0.078386446131 0.196735530738 0.012322630307321
1078	40978 270 40284 357483 1.037508265529 3.00277356992 7 0 0.078386452967 0.182336551365 0.010665119102309
1088	41248 271 57401 357819 1.055874478513 3.002773615571 7 0 0.064415419704 0.166209372453 0.0087016994084661
1098	41519 313 29141 357768 1.022798632044 3.002773608103 8 0 0.078386443536 0.196735518507 0.012322631047127
1108	41832 273 75595 357723 1.075940577375 3.00277360337 7 0 0.071544568816 0.166209385027 0.0085743332118439
1118	42105 229 59369 357708 1.058132019848 3.002773601666 6 0 0.045011739231 0.10395010801 0.0031917288444693
1128	42334 356 33566 357666 1.029594652563 3.002773597854 9 0 0.078386431279 0.1903039433 0.0094315692384902
1138	42690 271 40230 357489 1.037508259624 3.002773571621 7 0 0.078386449836 0.182336556682 0.011699168484208
1148	42961 401 71615 357528 1.071433969149 3.002773579955 10 0 0.078386486709 0.240120746143 0.011955738419241
1158	43362 358 75664 357741 1.075940598065 3.002773605227 9 0 0.038982923991 0.150834737052 0.0038356928862119
1168	43720 231 75493 357606 1.075940553604 3.002773591709 6 0 0.078386432042 0.182336553983 0.0097846074117004
1178	43951 314 59384 357765 1.05813202579 3.00277360758 8 0 0.047626878674 0.18233652127 0.0064137236281715
1188	44265 229 40269 357756 1.037508262502 3.002773606457 6 0 0.078386415308 0.182336562226 0.011772042920944
1198	44494 271 57413 357807 1.055874485294 3.002773612245 7 0 0.064415410658 0.166209375972 0.008701698917214
1208	44765 230 74643 357516 1.074967810942 3.002773577316 6 0 0.078386459614 0.181234214798 0.011697953159548
1218	44995 272 74631 357555 1.074967807906 3.002773585429 7 0 0.078386460106 0.181234223472 0.010591030647914
1228	45267 313 29174 357822 1.022798637348 3.002773616363 8 0 0.07838643794 0.196735514014 0.012322629698409
1238	45580 229 74613 357534 1.074967800643 3.002773581323 6 0 0.078386446848 0.181234226837 0.01169795443081
1248	45809 313 29006 357711 1.022798615328 3.00277360271 8 0 0.078386431378 0.196735485905 0.012322629269902
1257	46122 10774 5497 705166 1.005 51.005 401 0 3 24 36
1258	56896 6986 407458 704558 3.197547824152 51.002859665821 160 0.002673181807 0.097547824152 2.365739677084 0.050959320743122
1259	63882 10774 5497 705166 1.005 51.005 401 0 0 0 0
1260	74656 34 357336 357337 2 3 2 0 1 1 1
