version 2
run General-0-20120907-19:05:13-1384
attr configname General
attr datetime 20120907-19:05:13
attr experiment General
attr inifile omnetpp.ini
attr iterationvars ""
attr iterationvars2 $repetition=0
attr measurement ""
attr network DataCentricNet
attr processid 1384
attr repetition 0
attr replication #0
attr resultdir results
attr runnumber 0
attr seedset 0

vector 9  DataCentricNet.host[0].net  StabilityVector  ETV
vector 19  DataCentricNet.host[1].net  StabilityVector  ETV
vector 29  DataCentricNet.host[2].net  StabilityVector  ETV
vector 39  DataCentricNet.host[3].net  StabilityVector  ETV
vector 49  DataCentricNet.host[4].net  StabilityVector  ETV
vector 59  DataCentricNet.host[5].net  StabilityVector  ETV
vector 69  DataCentricNet.host[6].net  StabilityVector  ETV
vector 79  DataCentricNet.host[7].net  StabilityVector  ETV
vector 89  DataCentricNet.host[8].net  StabilityVector  ETV
vector 99  DataCentricNet.host[9].net  StabilityVector  ETV
vector 109  DataCentricNet.host[10].net  StabilityVector  ETV
vector 119  DataCentricNet.host[11].net  StabilityVector  ETV
vector 129  DataCentricNet.host[12].net  StabilityVector  ETV
vector 139  DataCentricNet.host[13].net  StabilityVector  ETV
vector 149  DataCentricNet.host[14].net  StabilityVector  ETV
vector 159  DataCentricNet.host[15].net  StabilityVector  ETV
vector 169  DataCentricNet.host[16].net  StabilityVector  ETV
vector 179  DataCentricNet.host[17].net  StabilityVector  ETV
vector 189  DataCentricNet.host[18].net  StabilityVector  ETV
vector 199  DataCentricNet.host[19].net  StabilityVector  ETV
vector 209  DataCentricNet.host[20].net  StabilityVector  ETV
vector 219  DataCentricNet.host[21].net  StabilityVector  ETV
vector 229  DataCentricNet.host[22].net  StabilityVector  ETV
vector 239  DataCentricNet.host[23].net  StabilityVector  ETV
vector 249  DataCentricNet.host[24].net  StabilityVector  ETV
vector 259  DataCentricNet.host[25].net  StabilityVector  ETV
vector 269  DataCentricNet.host[26].net  StabilityVector  ETV
vector 279  DataCentricNet.host[27].net  StabilityVector  ETV
vector 289  DataCentricNet.host[28].net  StabilityVector  ETV
vector 299  DataCentricNet.host[29].net  StabilityVector  ETV
vector 309  DataCentricNet.host[30].net  StabilityVector  ETV
vector 319  DataCentricNet.host[31].net  StabilityVector  ETV
vector 329  DataCentricNet.host[32].net  StabilityVector  ETV
vector 339  DataCentricNet.host[33].net  StabilityVector  ETV
vector 349  DataCentricNet.host[34].net  StabilityVector  ETV
vector 359  DataCentricNet.host[35].net  StabilityVector  ETV
vector 369  DataCentricNet.host[36].net  StabilityVector  ETV
vector 379  DataCentricNet.host[37].net  StabilityVector  ETV
vector 389  DataCentricNet.host[38].net  StabilityVector  ETV
vector 399  DataCentricNet.host[39].net  StabilityVector  ETV
vector 409  DataCentricNet.host[40].net  StabilityVector  ETV
vector 419  DataCentricNet.host[41].net  StabilityVector  ETV
vector 429  DataCentricNet.host[42].net  StabilityVector  ETV
vector 439  DataCentricNet.host[43].net  StabilityVector  ETV
vector 449  DataCentricNet.host[44].net  StabilityVector  ETV
vector 459  DataCentricNet.host[45].net  StabilityVector  ETV
vector 469  DataCentricNet.host[46].net  StabilityVector  ETV
vector 479  DataCentricNet.host[47].net  StabilityVector  ETV
vector 489  DataCentricNet.host[48].net  StabilityVector  ETV
vector 499  DataCentricNet.host[49].net  StabilityVector  ETV
vector 509  DataCentricNet.host[50].net  StabilityVector  ETV
vector 519  DataCentricNet.host[51].net  StabilityVector  ETV
vector 529  DataCentricNet.host[52].net  StabilityVector  ETV
vector 539  DataCentricNet.host[53].net  StabilityVector  ETV
vector 549  DataCentricNet.host[54].net  StabilityVector  ETV
vector 559  DataCentricNet.host[55].net  StabilityVector  ETV
vector 569  DataCentricNet.host[56].net  StabilityVector  ETV
vector 579  DataCentricNet.host[57].net  StabilityVector  ETV
vector 589  DataCentricNet.host[58].net  StabilityVector  ETV
vector 599  DataCentricNet.host[59].net  StabilityVector  ETV
vector 609  DataCentricNet.host[60].net  StabilityVector  ETV
vector 619  DataCentricNet.host[61].net  StabilityVector  ETV
vector 629  DataCentricNet.host[62].net  StabilityVector  ETV
vector 639  DataCentricNet.host[63].net  StabilityVector  ETV
vector 649  DataCentricNet.host[64].net  StabilityVector  ETV
vector 659  DataCentricNet.host[65].net  StabilityVector  ETV
vector 669  DataCentricNet.host[66].net  StabilityVector  ETV
vector 679  DataCentricNet.host[67].net  StabilityVector  ETV
vector 689  DataCentricNet.host[68].net  StabilityVector  ETV
vector 699  DataCentricNet.host[69].net  StabilityVector  ETV
vector 709  DataCentricNet.host[70].net  StabilityVector  ETV
vector 719  DataCentricNet.host[71].net  StabilityVector  ETV
vector 729  DataCentricNet.host[72].net  StabilityVector  ETV
vector 739  DataCentricNet.host[73].net  StabilityVector  ETV
vector 749  DataCentricNet.host[74].net  StabilityVector  ETV
vector 759  DataCentricNet.host[75].net  StabilityVector  ETV
vector 769  DataCentricNet.host[76].net  StabilityVector  ETV
vector 779  DataCentricNet.host[77].net  StabilityVector  ETV
vector 789  DataCentricNet.host[78].net  StabilityVector  ETV
vector 799  DataCentricNet.host[79].net  StabilityVector  ETV
vector 809  DataCentricNet.host[80].net  StabilityVector  ETV
vector 819  DataCentricNet.host[81].net  StabilityVector  ETV
vector 829  DataCentricNet.host[82].net  StabilityVector  ETV
vector 839  DataCentricNet.host[83].net  StabilityVector  ETV
vector 849  DataCentricNet.host[84].net  StabilityVector  ETV
vector 859  DataCentricNet.host[85].net  StabilityVector  ETV
vector 869  DataCentricNet.host[86].net  StabilityVector  ETV
vector 879  DataCentricNet.host[87].net  StabilityVector  ETV
vector 889  DataCentricNet.host[88].net  StabilityVector  ETV
vector 899  DataCentricNet.host[89].net  StabilityVector  ETV
vector 909  DataCentricNet.host[90].net  StabilityVector  ETV
vector 919  DataCentricNet.host[91].net  StabilityVector  ETV
vector 929  DataCentricNet.host[92].net  StabilityVector  ETV
vector 939  DataCentricNet.host[93].net  StabilityVector  ETV
vector 949  DataCentricNet.host[94].net  StabilityVector  ETV
vector 959  DataCentricNet.host[95].net  StabilityVector  ETV
vector 969  DataCentricNet.host[96].net  StabilityVector  ETV
vector 979  DataCentricNet.host[97].net  StabilityVector  ETV
vector 989  DataCentricNet.host[98].net  StabilityVector  ETV
vector 999  DataCentricNet.host[99].net  StabilityVector  ETV
vector 1009  DataCentricNet.host[100].net  StabilityVector  ETV
vector 1019  DataCentricNet.host[101].net  StabilityVector  ETV
vector 1029  DataCentricNet.host[102].net  StabilityVector  ETV
vector 1039  DataCentricNet.host[103].net  StabilityVector  ETV
vector 1049  DataCentricNet.host[104].net  StabilityVector  ETV
vector 1059  DataCentricNet.host[105].net  StabilityVector  ETV
vector 1069  DataCentricNet.host[106].net  StabilityVector  ETV
vector 1079  DataCentricNet.host[107].net  StabilityVector  ETV
vector 1089  DataCentricNet.host[108].net  StabilityVector  ETV
vector 1099  DataCentricNet.host[109].net  StabilityVector  ETV
vector 1109  DataCentricNet.host[110].net  StabilityVector  ETV
vector 1119  DataCentricNet.host[111].net  StabilityVector  ETV
vector 1129  DataCentricNet.host[112].net  StabilityVector  ETV
vector 1139  DataCentricNet.host[113].net  StabilityVector  ETV
vector 1149  DataCentricNet.host[114].net  StabilityVector  ETV
vector 1159  DataCentricNet.host[115].net  StabilityVector  ETV
vector 1169  DataCentricNet.host[116].net  StabilityVector  ETV
vector 1179  DataCentricNet.host[117].net  StabilityVector  ETV
vector 1189  DataCentricNet.host[118].net  StabilityVector  ETV
vector 1199  DataCentricNet.host[119].net  StabilityVector  ETV
vector 1209  DataCentricNet.host[120].net  StabilityVector  ETV
vector 1219  DataCentricNet.host[121].net  StabilityVector  ETV
vector 1229  DataCentricNet.host[122].net  StabilityVector  ETV
vector 1239  DataCentricNet.host[123].net  StabilityVector  ETV
vector 1249  DataCentricNet.host[124].net  StabilityVector  ETV
vector 1252  DataCentricNet.dataCentricNetworkMan  helloPacketFrequency  ETV
vector 1257  DataCentricNet.dataCentricNetworkMan  reinforcementPacketFrequency  ETV
vector 1259  DataCentricNet.dataCentricNetworkMan  breakagePacketFrequency  ETV
vector 58  DataCentricNet.host[5].net  InterestInterDepartureTimesVector  ETV
vector 28  DataCentricNet.host[2].net  InterestInterDepartureTimesVector  ETV
vector 158  DataCentricNet.host[15].net  InterestInterDepartureTimesVector  ETV
vector 568  DataCentricNet.host[56].net  InterestInterDepartureTimesVector  ETV
vector 818  DataCentricNet.host[81].net  InterestInterDepartureTimesVector  ETV
vector 258  DataCentricNet.host[25].net  InterestInterDepartureTimesVector  ETV
vector 998  DataCentricNet.host[99].net  InterestInterDepartureTimesVector  ETV
vector 118  DataCentricNet.host[11].net  InterestInterDepartureTimesVector  ETV
vector 548  DataCentricNet.host[54].net  InterestInterDepartureTimesVector  ETV
vector 498  DataCentricNet.host[49].net  InterestInterDepartureTimesVector  ETV
vector 728  DataCentricNet.host[72].net  InterestInterDepartureTimesVector  ETV
vector 1098  DataCentricNet.host[109].net  InterestInterDepartureTimesVector  ETV
vector 938  DataCentricNet.host[93].net  InterestInterDepartureTimesVector  ETV
vector 658  DataCentricNet.host[65].net  InterestInterDepartureTimesVector  ETV
vector 1228  DataCentricNet.host[122].net  InterestInterDepartureTimesVector  ETV
vector 558  DataCentricNet.host[55].net  InterestInterDepartureTimesVector  ETV
vector 1008  DataCentricNet.host[100].net  InterestInterDepartureTimesVector  ETV
vector 588  DataCentricNet.host[58].net  InterestInterDepartureTimesVector  ETV
vector 428  DataCentricNet.host[42].net  InterestInterDepartureTimesVector  ETV
vector 168  DataCentricNet.host[16].net  InterestInterDepartureTimesVector  ETV
vector 598  DataCentricNet.host[59].net  InterestInterDepartureTimesVector  ETV
vector 1068  DataCentricNet.host[106].net  InterestInterDepartureTimesVector  ETV
vector 468  DataCentricNet.host[46].net  InterestInterDepartureTimesVector  ETV
vector 368  DataCentricNet.host[36].net  InterestInterDepartureTimesVector  ETV
vector 108  DataCentricNet.host[10].net  InterestInterDepartureTimesVector  ETV
vector 1248  DataCentricNet.host[124].net  InterestInterDepartureTimesVector  ETV
vector 918  DataCentricNet.host[91].net  InterestInterDepartureTimesVector  ETV
vector 838  DataCentricNet.host[83].net  InterestInterDepartureTimesVector  ETV
vector 648  DataCentricNet.host[64].net  InterestInterDepartureTimesVector  ETV
vector 38  DataCentricNet.host[3].net  InterestInterDepartureTimesVector  ETV
vector 418  DataCentricNet.host[41].net  InterestInterDepartureTimesVector  ETV
vector 808  DataCentricNet.host[80].net  InterestInterDepartureTimesVector  ETV
vector 858  DataCentricNet.host[85].net  InterestInterDepartureTimesVector  ETV
vector 1128  DataCentricNet.host[112].net  InterestInterDepartureTimesVector  ETV
vector 458  DataCentricNet.host[45].net  InterestInterDepartureTimesVector  ETV
vector 148  DataCentricNet.host[14].net  InterestInterDepartureTimesVector  ETV
vector 628  DataCentricNet.host[62].net  InterestInterDepartureTimesVector  ETV
vector 778  DataCentricNet.host[77].net  InterestInterDepartureTimesVector  ETV
vector 188  DataCentricNet.host[18].net  InterestInterDepartureTimesVector  ETV
vector 238  DataCentricNet.host[23].net  InterestInterDepartureTimesVector  ETV
vector 328  DataCentricNet.host[32].net  InterestInterDepartureTimesVector  ETV
vector 138  DataCentricNet.host[13].net  InterestInterDepartureTimesVector  ETV
vector 958  DataCentricNet.host[95].net  InterestInterDepartureTimesVector  ETV
vector 908  DataCentricNet.host[90].net  InterestInterDepartureTimesVector  ETV
vector 78  DataCentricNet.host[7].net  InterestInterDepartureTimesVector  ETV
vector 968  DataCentricNet.host[96].net  InterestInterDepartureTimesVector  ETV
vector 718  DataCentricNet.host[71].net  InterestInterDepartureTimesVector  ETV
vector 8  DataCentricNet.host[0].net  InterestInterDepartureTimesVector  ETV
vector 18  DataCentricNet.host[1].net  InterestInterDepartureTimesVector  ETV
vector 1188  DataCentricNet.host[118].net  InterestInterDepartureTimesVector  ETV
vector 738  DataCentricNet.host[73].net  InterestInterDepartureTimesVector  ETV
vector 478  DataCentricNet.host[47].net  InterestInterDepartureTimesVector  ETV
vector 268  DataCentricNet.host[26].net  InterestInterDepartureTimesVector  ETV
vector 1168  DataCentricNet.host[116].net  InterestInterDepartureTimesVector  ETV
vector 218  DataCentricNet.host[21].net  InterestInterDepartureTimesVector  ETV
vector 578  DataCentricNet.host[57].net  InterestInterDepartureTimesVector  ETV
vector 348  DataCentricNet.host[34].net  InterestInterDepartureTimesVector  ETV
vector 1138  DataCentricNet.host[113].net  InterestInterDepartureTimesVector  ETV
vector 828  DataCentricNet.host[82].net  InterestInterDepartureTimesVector  ETV
vector 1078  DataCentricNet.host[107].net  InterestInterDepartureTimesVector  ETV
vector 708  DataCentricNet.host[70].net  InterestInterDepartureTimesVector  ETV
vector 768  DataCentricNet.host[76].net  InterestInterDepartureTimesVector  ETV
vector 68  DataCentricNet.host[6].net  InterestInterDepartureTimesVector  ETV
vector 278  DataCentricNet.host[27].net  InterestInterDepartureTimesVector  ETV
vector 528  DataCentricNet.host[52].net  InterestInterDepartureTimesVector  ETV
vector 88  DataCentricNet.host[8].net  InterestInterDepartureTimesVector  ETV
vector 928  DataCentricNet.host[92].net  InterestInterDepartureTimesVector  ETV
vector 1118  DataCentricNet.host[111].net  InterestInterDepartureTimesVector  ETV
vector 538  DataCentricNet.host[53].net  InterestInterDepartureTimesVector  ETV
vector 988  DataCentricNet.host[98].net  InterestInterDepartureTimesVector  ETV
vector 788  DataCentricNet.host[78].net  InterestInterDepartureTimesVector  ETV
vector 398  DataCentricNet.host[39].net  InterestInterDepartureTimesVector  ETV
vector 618  DataCentricNet.host[61].net  InterestInterDepartureTimesVector  ETV
vector 358  DataCentricNet.host[35].net  InterestInterDepartureTimesVector  ETV
vector 518  DataCentricNet.host[51].net  InterestInterDepartureTimesVector  ETV
vector 488  DataCentricNet.host[48].net  InterestInterDepartureTimesVector  ETV
vector 98  DataCentricNet.host[9].net  InterestInterDepartureTimesVector  ETV
vector 1018  DataCentricNet.host[101].net  InterestInterDepartureTimesVector  ETV
vector 668  DataCentricNet.host[66].net  InterestInterDepartureTimesVector  ETV
vector 948  DataCentricNet.host[94].net  InterestInterDepartureTimesVector  ETV
vector 888  DataCentricNet.host[88].net  InterestInterDepartureTimesVector  ETV
vector 198  DataCentricNet.host[19].net  InterestInterDepartureTimesVector  ETV
vector 848  DataCentricNet.host[84].net  InterestInterDepartureTimesVector  ETV
vector 1148  DataCentricNet.host[114].net  InterestInterDepartureTimesVector  ETV
vector 1058  DataCentricNet.host[105].net  InterestInterDepartureTimesVector  ETV
vector 898  DataCentricNet.host[89].net  InterestInterDepartureTimesVector  ETV
vector 408  DataCentricNet.host[40].net  InterestInterDepartureTimesVector  ETV
vector 1208  DataCentricNet.host[120].net  InterestInterDepartureTimesVector  ETV
vector 1218  DataCentricNet.host[121].net  InterestInterDepartureTimesVector  ETV
vector 688  DataCentricNet.host[68].net  InterestInterDepartureTimesVector  ETV
vector 678  DataCentricNet.host[67].net  InterestInterDepartureTimesVector  ETV
vector 248  DataCentricNet.host[24].net  InterestInterDepartureTimesVector  ETV
vector 128  DataCentricNet.host[12].net  InterestInterDepartureTimesVector  ETV
vector 178  DataCentricNet.host[17].net  InterestInterDepartureTimesVector  ETV
vector 308  DataCentricNet.host[30].net  InterestInterDepartureTimesVector  ETV
vector 1088  DataCentricNet.host[108].net  InterestInterDepartureTimesVector  ETV
vector 1198  DataCentricNet.host[119].net  InterestInterDepartureTimesVector  ETV
vector 1028  DataCentricNet.host[102].net  InterestInterDepartureTimesVector  ETV
vector 288  DataCentricNet.host[28].net  InterestInterDepartureTimesVector  ETV
vector 978  DataCentricNet.host[97].net  InterestInterDepartureTimesVector  ETV
vector 1238  DataCentricNet.host[123].net  InterestInterDepartureTimesVector  ETV
vector 1108  DataCentricNet.host[110].net  InterestInterDepartureTimesVector  ETV
vector 388  DataCentricNet.host[38].net  InterestInterDepartureTimesVector  ETV
vector 868  DataCentricNet.host[86].net  InterestInterDepartureTimesVector  ETV
vector 338  DataCentricNet.host[33].net  InterestInterDepartureTimesVector  ETV
vector 448  DataCentricNet.host[44].net  InterestInterDepartureTimesVector  ETV
vector 1048  DataCentricNet.host[104].net  InterestInterDepartureTimesVector  ETV
vector 1178  DataCentricNet.host[117].net  InterestInterDepartureTimesVector  ETV
vector 878  DataCentricNet.host[87].net  InterestInterDepartureTimesVector  ETV
vector 378  DataCentricNet.host[37].net  InterestInterDepartureTimesVector  ETV
vector 298  DataCentricNet.host[29].net  InterestInterDepartureTimesVector  ETV
vector 798  DataCentricNet.host[79].net  InterestInterDepartureTimesVector  ETV
vector 48  DataCentricNet.host[4].net  InterestInterDepartureTimesVector  ETV
vector 698  DataCentricNet.host[69].net  InterestInterDepartureTimesVector  ETV
vector 228  DataCentricNet.host[22].net  InterestInterDepartureTimesVector  ETV
vector 318  DataCentricNet.host[31].net  InterestInterDepartureTimesVector  ETV
vector 208  DataCentricNet.host[20].net  InterestInterDepartureTimesVector  ETV
vector 1038  DataCentricNet.host[103].net  InterestInterDepartureTimesVector  ETV
vector 638  DataCentricNet.host[63].net  InterestInterDepartureTimesVector  ETV
vector 608  DataCentricNet.host[60].net  InterestInterDepartureTimesVector  ETV
vector 758  DataCentricNet.host[75].net  InterestInterDepartureTimesVector  ETV
vector 748  DataCentricNet.host[74].net  InterestInterDepartureTimesVector  ETV
vector 508  DataCentricNet.host[50].net  InterestInterDepartureTimesVector  ETV
vector 1158  DataCentricNet.host[115].net  InterestInterDepartureTimesVector  ETV
vector 438  DataCentricNet.host[43].net  InterestInterDepartureTimesVector  ETV
vector 1260  DataCentricNet.dataCentricNetworkMan  modulesDownVector  ETV
vector 1258  DataCentricNet.dataCentricNetworkMan  dataPacketE2EDelay  ETV
8	50238	1.066672305772	0.00235146467
8	50772	1.067646195023	0.000973889251
8	70806	1.089417102843	0.02177090782
8	89536	1.115547835993	0.02613073315
8	94944	1.124477696623	0.00892986063
8	138196	1.186458104092	0.061980407469
8	172722	1.23154822225	0.045090118158
8	197979	1.259149564479	0.027601342229
8	570329	1.259249564479	0
8	570329	23.007194915882	0
8	611928	23.184618893688	0.177423977806
8	612441	23.187106893688	0.002488
8	748912	23.67171815935	0.484611265662
8	943883	23.67181815935	0
8	943883	26.618356118331	0
8	1071746	26.618456118331	0
8	1071746	30.006066184049	0
8	1104094	30.074599840483	0.068533656434
8	1105467	30.080053702509	0.005453862026
8	1122950	30.080153702509	0
8	1122950	32.005031461127	0
8	1196066	32.005131461127	0
8	1196066	34.007727583349	0
8	1212509	34.033626753931	0.025899170582
8	1267971	34.033726753931	0
8	1267971	41.003781210216	0
8	1268340	41.004732315322	0.000951105106
9	388	1	0
9	378877	2	0
9	379002	3	0
9	466491	4	0
9	467390	5	0
9	467515	6	0
9	467640	7	0
9	486982	8	0
9	487855	9	0
9	487980	10	0
9	488230	11	0
9	506768	12	0
9	507625	13	0
9	507750	14	0
9	526184	15	0
9	527033	16	0
9	527158	17	0
9	547672	18	0
9	548505	19	0
9	548630	20	0
9	569046	21	0
9	569867	22	0
9	569992	23	0
9	839306	24	0
9	902769	25	0
9	902894	26	0
9	1033992	27	0
9	1050899	28	0
9	1051024	29	0
9	1071173	30	0
9	1122440	31	0
9	1122565	32	0
9	1194960	33	0
9	1195741	34	0
9	1227977	35	0
9	1246876	36	0
9	1247649	37	0
9	1247774	38	0
9	1266444	39	0
9	1267201	40	0
9	1267576	41	0
9	1345681	42	0
9	1346438	43	0
9	1346563	44	0
9	1364999	45	0
9	1365748	46	0
9	1365873	47	0
9	1383845	48	0
9	1384582	49	0
9	1384707	50	0
9	1402457	51	0
9	1403186	52	0
18	50241	1.066672305864	0.002351468737
18	94881	1.124477686994	0.05780538113
18	138229	1.186458112455	0.061980425461
18	172773	1.231548227937	0.045090115482
18	197934	1.259149555151	0.027601327214
18	570317	1.259249555151	0
18	570317	23.007194911907	0
18	611916	23.184618889713	0.177423977806
18	612429	23.187106889713	0.002488
18	750270	23.675216985693	0.48811009598
18	943871	23.675316985693	0
18	943871	26.618356114356	0
18	1071782	26.618456114356	0
18	1071782	30.006066195805	0
18	1122938	30.006166195805	0
18	1122938	32.005031459682	0
18	1196177	32.005131459682	0
18	1196177	34.007727601869	0
18	1268046	34.007827601869	0
18	1268046	41.003781225147	0
18	1268298	41.004732305994	0.000951080847
19	390	1	0
19	378878	2	0
19	379003	3	0
19	466492	4	0
19	467391	5	0
19	467516	6	0
19	467641	7	0
19	486983	8	0
19	487856	9	0
19	487981	10	0
19	488231	11	0
19	506769	12	0
19	507626	13	0
19	507751	14	0
19	526185	15	0
19	527034	16	0
19	527159	17	0
19	547673	18	0
19	548506	19	0
19	548631	20	0
19	569047	21	0
19	569868	22	0
19	569993	23	0
19	839307	24	0
19	902770	25	0
19	902895	26	0
19	1033993	27	0
19	1050900	28	0
19	1051025	29	0
19	1071174	30	0
19	1122441	31	0
19	1122566	32	0
19	1194961	33	0
19	1195742	34	0
19	1227978	35	0
19	1246877	36	0
19	1247650	37	0
19	1247775	38	0
19	1266445	39	0
19	1267202	40	0
19	1267577	41	0
19	1345682	42	0
19	1346439	43	0
19	1346564	44	0
19	1365000	45	0
19	1365749	46	0
19	1365874	47	0
19	1383846	48	0
19	1384583	49	0
19	1384708	50	0
19	1402458	51	0
19	1403187	52	0
28	36516	1.043962823359	0.004273676262
28	39276	1.048411872845	0.004449049486
28	41421	1.05182788658	0.003416013735
28	95064	1.124477717215	0.072649830635
28	138271	1.18645812606	0.061980408845
28	172914	1.231548245023	0.045090118963
28	198077	1.259149583217	0.027601338194
28	419223	1.259249583217	0
28	419223	3.591005357815	0
29	392	1	0
29	378879	2	0
29	379004	3	0
29	466493	4	0
29	467392	5	0
29	467517	6	0
29	467642	7	0
29	486984	8	0
29	487857	9	0
29	487982	10	0
29	488232	11	0
29	506770	12	0
29	507627	13	0
29	507752	14	0
29	526186	15	0
29	527035	16	0
29	527160	17	1
29	547674	18	1
29	548507	19	1
29	548632	20	1
29	569048	21	1
29	569869	22	1
29	569994	23	1
29	839308	24	1
29	902771	25	1
29	902896	26	1
29	1033994	27	1
29	1050901	28	1
29	1051026	29	1
29	1071175	30	1
29	1122442	31	1
29	1122567	32	1
29	1194962	33	1
29	1195743	34	1
29	1227979	35	1
29	1246878	36	1
29	1247651	37	1
29	1247776	38	1
29	1266446	39	1
29	1267203	40	1
29	1267578	41	1
29	1345683	42	1
29	1346440	43	1
29	1346565	44	1
29	1365001	45	1
29	1365750	46	1
29	1365875	47	1
29	1383847	48	1
29	1384584	49	1
29	1384709	50	1
29	1402459	51	1
29	1403188	52	1
38	41319	1.05182787203	0.001070004445
38	94962	1.124477698128	0.072649826098
38	138205	1.186458106915	0.061980408787
38	172746	1.231548224478	0.045090117563
38	197994	1.25914956593	0.027601341452
38	570302	1.25924956593	0
38	570302	23.007194907495	0
38	611901	23.184618885301	0.177423977806
38	612414	23.187106885301	0.002488
38	750234	23.675216978618	0.488110093317
38	791041	23.798201484587	0.122984505969
38	943856	23.798301484587	0
38	943856	26.618356109944	0
38	1071758	26.618456109944	0
38	1071758	30.006066188717	0
38	1122980	30.006166188717	0
38	1122980	32.005031468514	0
38	1196105	32.005131468514	0
38	1196105	34.007727591363	0
38	1268010	34.007827591363	0
38	1268010	41.003781218199	0
38	1268352	41.004732316773	0.000951098574
39	394	1	0
39	378880	2	0
39	379005	3	0
39	466494	4	0
39	467393	5	0
39	467518	6	0
39	467643	7	0
39	486985	8	0
39	487858	9	0
39	487983	10	0
39	488233	11	0
39	506771	12	0
39	507628	13	0
39	507753	14	0
39	526187	15	0
39	527036	16	0
39	527161	17	0
39	547675	18	0
39	548508	19	0
39	548633	20	0
39	569049	21	0
39	569870	22	0
39	569995	23	0
39	839309	24	0
39	902772	25	0
39	902897	26	0
39	1033995	27	0
39	1050902	28	0
39	1051027	29	0
39	1071176	30	0
39	1122443	31	0
39	1122568	32	0
39	1194963	33	0
39	1195744	34	0
39	1227980	35	0
39	1246879	36	0
39	1247652	37	0
39	1247777	38	0
39	1266447	39	0
39	1267204	40	0
39	1267579	41	0
39	1345684	42	0
39	1346441	43	0
39	1346566	44	0
39	1365002	45	0
39	1365751	46	0
39	1365876	47	0
39	1383848	48	0
39	1384585	49	0
39	1384710	50	0
39	1402460	51	0
39	1403189	52	0
48	94953	1.124477697401	0.052581135336
48	138052	1.186458083276	0.061980385875
48	172725	1.231548222269	0.045090138993
48	239613	1.323595961432	0.092047739163
48	301007	1.450054890509	0.126458929077
48	307795	1.46599004393	0.015935153421
48	570479	1.46609004393	0
48	570479	23.007194945525	0
48	617577	23.196005455717	0.188810510192
48	750369	23.675216996417	0.4792115407
48	956252	23.675316996417	0
48	956252	26.641967820843	0
48	983182	26.714580285924	0.072612465081
48	1071632	26.714680285924	0
48	1071632	30.006066159624	0
48	1082690	30.018831691087	0.012765531463
48	1122866	30.018931691087	0
48	1122866	32.005031447236	0
48	1152151	32.067043271271	0.062011824035
48	1196114	32.067143271271	0
48	1196114	34.007727592152	0
48	1267878	34.007827592152	0
48	1267878	41.003781186029	0
48	1268406	41.004732332155	0.000951146126
49	396	1	0
49	378881	2	0
49	379006	3	0
49	466495	4	0
49	467394	5	0
49	467519	6	0
49	467644	7	0
49	486986	8	0
49	487859	9	0
49	487984	10	0
49	488234	11	0
49	506772	12	0
49	507629	13	0
49	507754	14	0
49	526188	15	0
49	527037	16	0
49	527162	17	0
49	547676	18	0
49	548509	19	0
49	548634	20	0
49	569050	21	0
49	569871	22	0
49	569996	23	0
49	839310	24	0
49	902773	25	0
49	902898	26	0
49	1033996	27	0
49	1050903	28	0
49	1051028	29	0
49	1071177	30	0
49	1122444	31	0
49	1122569	32	0
49	1194964	33	0
49	1195745	34	0
49	1227981	35	0
49	1246880	36	0
49	1247653	37	0
49	1247778	38	0
49	1266448	39	0
49	1267205	40	0
49	1267580	41	0
49	1345685	42	0
49	1346442	43	0
49	1346567	44	0
49	1365003	45	0
49	1365752	46	0
49	1365877	47	0
49	1383849	48	0
49	1384586	49	0
49	1384711	50	0
49	1402461	51	0
49	1403190	52	0
58	19275	1.014434678531	0.014434678531
58	20508	1.01620715271	0.001772474179
58	20967	1.016976132291	0.000768979581
58	24795	1.020118320347	0.003142188056
58	25076	1.020925501444	0.000807181097
58	26239	1.02266446883	0.001738967386
58	26963	1.023813242955	0.001148774125
58	27623	1.024566137625	0.00075289467
58	28697	1.026269371664	0.001703234039
58	29621	1.027383907328	0.001114535664
58	31483	1.029294255006	0.001910347678
58	32153	1.031245545689	0.001951290683
58	33427	1.034761892869	0.00351634718
58	33943	1.035728445395	0.000966552526
58	34453	1.036990839628	0.001262394233
58	34972	1.03819608987	0.001205250242
58	36638	1.0439628526	0.00576676273
58	37391	1.044970555475	0.001007702875
58	39372	1.048411883224	0.003441327749
58	41493	1.051827897927	0.003416014703
58	56585	1.074971332244	0.023143434317
58	95184	1.124477746862	0.049506414618
58	138328	1.186458140685	0.061980393823
58	172998	1.23154826854	0.045090127855
58	414356	1.23164826854	0
58	414356	3.577916689746	0
58	432876	3.61979904451	0.041882354764
58	570455	3.61989904451	0
58	570455	23.007194940383	0
58	734256	23.636348652698	0.629153712315
58	739309	23.649232620084	0.012883967386
58	933063	23.649332620084	0
58	933063	26.591814968753	0
58	961375	26.654722001384	0.062907032631
58	1071839	26.654822001384	0
58	1071839	30.00606621391	0
58	1123115	30.00616621391	0
58	1123115	32.005031511694	0
58	1196081	32.005131511694	0
58	1196081	34.007727586259	0
58	1268076	34.007827586259	0
58	1268076	41.003781235586	0
58	1268550	41.004732364531	0.000951128945
59	398	1	0
59	378882	2	0
59	379007	3	0
59	466496	4	0
59	467395	5	0
59	467520	6	0
59	467645	7	0
59	486987	8	0
59	487860	9	0
59	487985	10	0
59	488235	11	0
59	506773	12	0
59	507630	13	0
59	507755	14	0
59	526189	15	0
59	527038	16	0
59	527163	17	0
59	547677	18	0
59	548510	19	0
59	548635	20	0
59	569051	21	0
59	569872	22	0
59	569997	23	0
59	839311	24	0
59	902774	25	0
59	902899	26	0
59	1033997	27	0
59	1050904	28	0
59	1051029	29	0
59	1071178	30	0
59	1122445	31	0
59	1122570	32	0
59	1194965	33	0
59	1195746	34	0
59	1227982	35	0
59	1246881	36	0
59	1247654	37	0
59	1247779	38	0
59	1266449	39	0
59	1267206	40	0
59	1267581	41	0
59	1345686	42	0
59	1346443	43	0
59	1346568	44	0
59	1365004	45	0
59	1365753	46	0
59	1365878	47	0
59	1383850	48	0
59	1384587	49	0
59	1384712	50	0
59	1402462	51	0
59	1403191	52	0
68	50883	1.067646208711	0.000973887502
68	85674	1.109162836894	0.041516628183
68	89524	1.115547834945	0.006384998051
68	94977	1.124477701225	0.00892986628
68	138139	1.18645809475	0.061980393525
68	172719	1.231548222122	0.045090127372
68	198044	1.259149575382	0.02760135326
68	570413	1.259249575382	0
68	570413	23.007194931879	0
68	626536	23.210584668079	0.2033897362
68	651896	23.322391611836	0.111806943757
68	748900	23.671718158302	0.349326546466
68	950009	23.671818158302	0
68	950009	26.627949468483	0
68	950405	26.629118254769	0.001168786286
69	400	1	0
69	378883	2	0
69	379008	3	0
69	466497	4	0
69	467396	5	0
69	467521	6	0
69	467646	7	0
69	486988	8	0
69	487861	9	0
69	487986	10	0
69	488236	11	0
69	506774	12	0
69	507631	13	0
69	507756	14	0
69	526190	15	0
69	527039	16	0
69	527164	17	0
69	547678	18	0
69	548511	19	0
69	548636	20	0
69	569052	21	0
69	569873	22	0
69	569998	23	0
69	839312	24	0
69	902775	25	0
69	902900	26	0
69	1033998	27	0
69	1050905	28	0
69	1051030	29	1
69	1071179	30	1
69	1122446	31	1
69	1122571	32	1
69	1194966	33	1
69	1195747	34	1
69	1227983	35	1
69	1246882	36	1
69	1247655	37	1
69	1247780	38	1
69	1266450	39	1
69	1267207	40	1
69	1267582	41	1
69	1345687	42	1
69	1346444	43	1
69	1346569	44	1
69	1365005	45	1
69	1365754	46	1
69	1365879	47	1
69	1383851	48	1
69	1384588	49	1
69	1384713	50	1
69	1402463	51	1
69	1403192	52	1
78	50226	1.066672304802	0.004956068324
78	94842	1.124477681135	0.057805376333
78	138178	1.186458101177	0.061980420042
78	172680	1.231548216878	0.045090115701
78	197931	1.25914955395	0.027601337072
78	570326	1.25924955395	0
78	570326	23.007194915123	0
78	611925	23.184618892929	0.177423977806
78	612438	23.187106892929	0.002488