version 2
run General-0-20120911-15:46:26-3840
attr configname General
attr datetime 20120911-15:46:26
attr experiment General
attr inifile omnetpp.ini
attr iterationvars ""
attr iterationvars2 $repetition=0
attr measurement ""
attr network DataCentricNet
attr processid 3840
attr repetition 0
attr replication #0
attr resultdir results
attr runnumber 0
attr seedset 0

vector 1252  DataCentricNet.dataCentricNetworkMan  helloPacketFrequency  ETV
vector 1257  DataCentricNet.dataCentricNetworkMan  reinforcementPacketFrequency  ETV
vector 1259  DataCentricNet.dataCentricNetworkMan  breakagePacketFrequency  ETV
1252	5060	1.005	125
1252	15489	1.01	0
1252	25528	1.02048292273	0
1252	28282	1.02548292273	0
1252	30567	1.03048292273	0
1252	33378	1.03548292273	0
1252	35333	1.04048292273	0
1252	37298	1.04548292273	0
1252	39627	1.05048292273	0
1252	41909	1.05548292273	0
1252	44197	1.06048292273	0
1252	46570	1.06548292273	0
1252	48375	1.07048292273	0
1252	50609	1.07548292273	0
1252	52970	1.08048292273	0
1252	55399	1.08548292273	0
1252	58383	1.09048292273	0
1252	64060	1.10572229638	0
1252	65811	1.11072229638	0
1252	67178	1.11572229638	0
1252	71871	1.134536664637	0
1252	72870	1.139536664637	0
1252	76103	1.152849548037	0
1252	78857	1.157849548037	0
1252	81002	1.162849548037	0
1252	83366	1.169127258266	0
1252	85878	1.174127258266	0
1252	98057	1.210193810252	0
1252	100743	1.215193810252	0
1252	108042	1.238529589836	0
1252	110303	1.243529589836	0
1252	119944	1.27715338785	0
1252	122166	1.28215338785	0
1252	127533	1.301485590637	0
1252	130043	1.306485590637	0
1252	132226	1.311485590637	0
1257	5060	1.005	0
1257	15489	1.01	0
1257	25528	1.02048292273	0
1257	28282	1.02548292273	0
1257	30567	1.03048292273	0
1257	33378	1.03548292273	0
1257	35333	1.04048292273	0
1257	37298	1.04548292273	0
1257	39627	1.05048292273	0
1257	41909	1.05548292273	0
1257	44197	1.06048292273	0
1257	46570	1.06548292273	0
1257	48375	1.07048292273	0
1257	50609	1.07548292273	0
1257	52970	1.08048292273	0
1257	55399	1.08548292273	0
1257	58383	1.09048292273	0
1257	64060	1.10572229638	0
1257	65811	1.11072229638	0
1257	67178	1.11572229638	0
1257	71871	1.134536664637	0
1257	72870	1.139536664637	0
1257	76103	1.152849548037	0
1257	78857	1.157849548037	0
1257	81002	1.162849548037	0
1257	83366	1.169127258266	0
1257	85878	1.174127258266	0
1257	98057	1.210193810252	0
1257	100743	1.215193810252	0
1257	108042	1.238529589836	0
1257	110303	1.243529589836	0
1257	119944	1.27715338785	0
1257	122166	1.28215338785	0
1257	127533	1.301485590637	0
1257	130043	1.306485590637	0
1257	132226	1.311485590637	0
1259	5060	1.005	0
1259	15489	1.01	0
1259	25528	1.02048292273	0
1259	28282	1.02548292273	0
1259	30567	1.03048292273	0
1259	33378	1.03548292273	0
1259	35333	1.04048292273	0
1259	37298	1.04548292273	0
1259	39627	1.05048292273	0
1259	41909	1.05548292273	0
1259	44197	1.06048292273	0
1259	46570	1.06548292273	0
1259	48375	1.07048292273	0
1259	50609	1.07548292273	0
1259	52970	1.08048292273	0
1259	55399	1.08548292273	0
1259	58383	1.09048292273	0
1259	64060	1.10572229638	0
1259	65811	1.11072229638	0
1259	67178	1.11572229638	0
1259	71871	1.134536664637	0
1259	72870	1.139536664637	0
1259	76103	1.152849548037	0
1259	78857	1.157849548037	0
1259	81002	1.162849548037	0
1259	83366	1.169127258266	0
1259	85878	1.174127258266	0
1259	98057	1.210193810252	0
1259	100743	1.215193810252	0
1259	108042	1.238529589836	0
1259	110303	1.243529589836	0
1259	119944	1.27715338785	0
1259	122166	1.28215338785	0
1259	127533	1.301485590637	0
1259	130043	1.306485590637	0
1259	132226	1.311485590637	0
