version 2
run General-0-20120624-23:23:55-2232
attr configname General
attr datetime 20120624-23:23:55
attr experiment General
attr inifile omnetpp.ini
attr iterationvars ""
attr iterationvars2 $repetition=0
attr measurement ""
attr network DataCentricNet
attr processid 2232
attr repetition 0
attr replication #0
attr resultdir results
attr runnumber 0
attr seedset 0

vector 400  DataCentricNet.dataCentricNetworkMan  ControlPackets  ETV
vector 401  DataCentricNet.dataCentricNetworkMan  controlPacketFrequency  ETV
400	207	1	1
400	208	1	2
400	209	1	3
400	210	1	4
400	211	1	5
400	212	1	6
400	213	1	7
400	214	1	8
400	215	1	9
400	216	1	10
400	217	1	11
400	218	1	12
400	219	1	13
400	220	1	14
400	221	1	15
400	222	1	16
400	223	1	17
400	224	1	18
400	225	1	19
400	226	1	20
400	227	1	21
400	228	1	22
400	229	1	23
400	230	1	24
400	231	1	25
400	232	1	26
400	233	1	27
400	234	1	28
400	235	1	29
400	236	1	30
400	237	1	31
400	238	1	32
400	239	1	33
400	240	1	34
400	241	1	35
400	242	1	36
400	243	1	37
400	244	1	38
400	245	1	39
400	246	1	40
400	247	1	41
400	248	1	42
400	249	1	43
400	250	1	44
400	251	1	45
400	252	1	46
400	253	1	47
400	254	1	48
400	255	1	49
400	256	1	50
400	257	1	51
400	258	1	52
400	259	1	53
400	260	1	54
400	261	1	55
400	262	1	56
400	263	1	57
400	264	1	58
400	265	1	59
400	266	1	60
400	267	1	61
400	268	1	62
400	269	1	63
400	270	1	64
400	271	1	65
400	272	1	66
400	273	1	67
400	274	1	68
400	275	1	69
400	276	1	70
400	277	1	71
400	278	1	72
400	279	1	73
400	280	1	74
400	281	1	75
400	282	1	76
400	283	1	77
400	284	1	78
400	285	1	79
400	286	1	80
400	287	1	81
400	288	1	82
400	289	1	83
400	290	1	84
400	291	1	85
400	292	1	86
400	293	1	87
400	294	1	88
400	295	1	89
400	296	1	90
400	297	1	91
400	298	1	92
400	299	1	93
400	300	1	94
400	301	1	95
400	302	1	96
400	303	1	97
400	304	1	98
400	305	1	99
400	306	1	100
400	877	1.002862857402	101
400	880	1.002862867694	102
400	883	1.002862868953	103
400	886	1.002862869384	104
400	889	1.002862872969	105
400	892	1.002862873482	106
400	2112	1.003689812155	107
400	2115	1.003689812815	108
400	2118	1.003689817744	109
400	2121	1.003689822113	110
400	3475	1.00465216575	111
400	3478	1.004652172141	112
400	3481	1.004652174251	113
400	3484	1.004652176716	114
400	3487	1.004652178119	115
400	6342	1.006523247693	1
400	7849	1.007474332403	2
400	8949	1.008372391802	3
400	8952	1.008372393871	4
400	8955	1.008372393983	5
400	8958	1.008372399181	6
400	8961	1.008372402148	7
400	8968	1.008372405308	8
400	8971	1.008372406247	9
400	9748	1.009338079474	10
400	9751	1.009338080337	11
400	9754	1.009338081987	12
400	9757	1.009338084062	13
400	9760	1.009338084434	14
400	9763	1.009338088018	15
400	9766	1.009338088304	16
400	10736	1.010160047084	1
400	11703	1.011131397382	2
400	11706	1.011131401349	3
400	11709	1.011131402926	4
400	14037	1.01396538466	5
400	14040	1.013965385285	6
400	14043	1.013965386369	7
400	14048	1.013965390465	8
400	14051	1.013965391123	9
400	14054	1.013965391447	10
400	14796	1.014935451771	11
400	14799	1.014935453402	12
400	14802	1.01493545489	13
400	14805	1.014935457256	14
400	14808	1.014935461528	15
400	14811	1.014935462313	16
400	15414	1.015839380131	1
400	15417	1.0158393814	2
400	15420	1.015839385762	3
400	15423	1.015839386406	4
400	15426	1.015839386634	5
400	15429	1.015839387542	6
400	15432	1.015839388027	7
400	17231	1.018470817642	8
400	17234	1.018470826641	9
400	17237	1.018470826931	10
400	17240	1.018470827003	11
400	17243	1.018470828194	12
400	17246	1.018470828266	13
400	17819	1.019400125045	14
400	17822	1.019400125233	15
400	17825	1.019400130129	16
400	17828	1.019400131519	17
400	17831	1.019400136386	18
400	17834	1.019400137156	19
400	17837	1.019400137658	20
400	19985	1.021405198276	1
400	20745	1.022570324089	2
400	20748	1.022570327562	3
400	20751	1.02257032928	4
400	22243	1.025479287638	1
400	22246	1.025479295833	2
400	22249	1.025479297169	3
400	22252	1.025479298594	4
400	22255	1.025479298781	5
400	25348	1.030454515165	1
400	25351	1.030454515617	2
400	25354	1.030454518943	3
400	25357	1.030454522274	4
400	27012	1.03317429927	5
400	27015	1.033174301269	6
400	27018	1.033174301274	7
400	27021	1.033174305017	8
400	27024	1.033174310614	9
400	27027	1.033174311229	10
400	27030	1.033174312093	11
400	27033	1.033174314261	12
400	27036	1.033174314551	13
400	29746	1.037676202895	1
400	29749	1.037676211796	2
400	29752	1.037676212085	3
400	29755	1.037676214926	4
400	30857	1.039841006862	5
400	30860	1.039841013488	6
400	30863	1.03984101372	7
400	30866	1.039841017095	8
400	30869	1.039841018155	9
400	30874	1.039841019036	10
400	33581	1.044111128097	1
400	33584	1.044111132305	2
400	33587	1.044111132966	3
400	37590	1.052123715586	1
400	37593	1.052123715758	2
400	37596	1.052123716514	3
400	37599	1.052123718449	4
400	37602	1.052123718698	5
400	37605	1.052123719472	6
400	37610	1.052123721106	7
400	38034	1.053853570302	8
400	38037	1.053853571711	9
400	38040	1.053853576939	10
400	38043	1.053853577954	11
400	38046	1.053853578051	12
400	38049	1.053853578543	13
400	38052	1.053853580409	14
400	38055	1.053853581906	15
400	38058	1.053853582191	16
400	41978	1.061848248921	1
400	41981	1.061848251305	2
400	41984	1.06184825236	3
400	41987	1.061848253273	4
400	46038	1.071625139764	1
400	46041	1.071625139974	2
400	46044	1.0716251435	3
400	46047	1.071625144655	4
400	46050	1.071625147322	5
400	46053	1.071625148161	6
400	46056	1.07162514852	7
400	46059	1.071625148979	8
400	49003	1.08228418365	1
400	49006	1.082284186021	2
400	49009	1.082284187035	3
400	49012	1.082284189288	4
400	49015	1.082284194152	5
400	49018	1.082284196801	6
400	54835	1.0984191204	1
400	54838	1.098419123716	2
400	54841	1.098419128796	3
400	57447	1.106070528901	1
400	57450	1.106070534544	2
400	57453	1.106070535154	3
400	57456	1.106070538066	4
400	57871	1.107883729287	5
400	57874	1.107883730013	6
400	57877	1.107883733931	7
400	57880	1.107883734091	8
400	57883	1.107883737505	9
400	62983	1.126975627546	1
400	62986	1.126975629424	2
400	62989	1.126975631094	3
400	62992	1.126975632085	4
400	64688	1.133307737247	1
400	64691	1.133307739152	2
400	64694	1.133307740828	3
400	64697	1.133307746789	4
400	64700	1.133307746827	5
400	65111	1.135384527696	6
400	65114	1.135384529619	7
400	65117	1.135384531325	8
400	65120	1.135384531476	9
400	65123	1.13538453319	10
400	65126	1.135384533509	11
400	65129	1.135384537729	12
400	65132	1.13538453802	13
400	65135	1.135384539761	14
400	65138	1.135384540548	15
400	66719	1.139425814104	1
400	66722	1.139425818655	2
400	66725	1.139425821997	3
400	66728	1.139425823927	4
400	66731	1.139425826487	5
400	69183	1.144283863625	1
400	69186	1.144283865242	2
400	69189	1.144283865762	3
400	69192	1.144283867403	4
400	69195	1.144283867583	5
400	69198	1.144283870086	6
400	85604	1.210733076035	1
400	85607	1.210733081517	2
400	85610	1.210733082827	3
400	87276	1.229548762655	1
400	87279	1.229548763055	2
400	87282	1.2295487706	3
400	87285	1.229548771711	4
400	87288	1.229548771869	5
400	87291	1.22954877395	6
401	4069	1.005	115
401	10723	1.01	16
401	15150	1.015	16
401	18490	1.02	20
401	22219	1.025	4
401	25326	1.03	5
401	28627	1.035	13
401	31165	1.04	10
401	34030	1.045	3
401	36815	1.05	0
401	39787	1.057123715586	16
401	42300	1.062123715586	4
401	44204	1.067123715586	0
401	47207	1.076625139764	8
401	48890	1.081625139764	0
401	50684	1.08728418365	6
401	52640	1.09228418365	0
401	56807	1.1034191204	3
401	58171	1.1084191204	9
401	59564	1.1134191204	0
401	64264	1.131975627546	4
401	65639	1.136975627546	15
401	68230	1.141975627546	5
401	70617	1.146975627546	6
401	72729	1.151975627546	0
401	86020	1.215733076035	3
401	86743	1.220733076035	0
401	88325	1.234548762655	6
401	89569	1.239548762655	0
