                                                                
version 2
run General-0-20120821-22:46:00-2148
attr configname General
attr datetime 20120821-22:46:00
attr experiment General
attr inifile omnetpp.ini
attr iterationvars ""
attr iterationvars2 $repetition=0
attr measurement ""
attr network DataCentricNet
attr processid 2148
attr repetition 0
attr replication #0
attr resultdir results
attr runnumber 0
attr seedset 0

vector 1257  DataCentricNet.dataCentricNetworkMan  reinforcementPacketFrequency  ETV
vector 1259  DataCentricNet.dataCentricNetworkMan  breakagePacketFrequency  ETV
vector 58  DataCentricNet.host[5].net  InterestInterDepartureTimesVector  ETV
vector 158  DataCentricNet.host[15].net  InterestInterDepartureTimesVector  ETV
vector 498  DataCentricNet.host[49].net  InterestInterDepartureTimesVector  ETV
vector 28  DataCentricNet.host[2].net  InterestInterDepartureTimesVector  ETV
vector 1248  DataCentricNet.host[124].net  InterestInterDepartureTimesVector  ETV
vector 568  DataCentricNet.host[56].net  InterestInterDepartureTimesVector  ETV
vector 558  DataCentricNet.host[55].net  InterestInterDepartureTimesVector  ETV
vector 368  DataCentricNet.host[36].net  InterestInterDepartureTimesVector  ETV
vector 118  DataCentricNet.host[11].net  InterestInterDepartureTimesVector  ETV
vector 168  DataCentricNet.host[16].net  InterestInterDepartureTimesVector  ETV
vector 818  DataCentricNet.host[81].net  InterestInterDepartureTimesVector  ETV
vector 548  DataCentricNet.host[54].net  InterestInterDepartureTimesVector  ETV
vector 428  DataCentricNet.host[42].net  InterestInterDepartureTimesVector  ETV
vector 658  DataCentricNet.host[65].net  InterestInterDepartureTimesVector  ETV
vector 108  DataCentricNet.host[10].net  InterestInterDepartureTimesVector  ETV
vector 258  DataCentricNet.host[25].net  InterestInterDepartureTimesVector  ETV
vector 938  DataCentricNet.host[93].net  InterestInterDepartureTimesVector  ETV
vector 728  DataCentricNet.host[72].net  InterestInterDepartureTimesVector  ETV
vector 998  DataCentricNet.host[99].net  InterestInterDepartureTimesVector  ETV
vector 918  DataCentricNet.host[91].net  InterestInterDepartureTimesVector  ETV
vector 1098  DataCentricNet.host[109].net  InterestInterDepartureTimesVector  ETV
vector 1008  DataCentricNet.host[100].net  InterestInterDepartureTimesVector  ETV
vector 588  DataCentricNet.host[58].net  InterestInterDepartureTimesVector  ETV
vector 598  DataCentricNet.host[59].net  InterestInterDepartureTimesVector  ETV
vector 1228  DataCentricNet.host[122].net  InterestInterDepartureTimesVector  ETV
vector 1068  DataCentricNet.host[106].net  InterestInterDepartureTimesVector  ETV
vector 468  DataCentricNet.host[46].net  InterestInterDepartureTimesVector  ETV
vector 418  DataCentricNet.host[41].net  InterestInterDepartureTimesVector  ETV
vector 38  DataCentricNet.host[3].net  InterestInterDepartureTimesVector  ETV
vector 838  DataCentricNet.host[83].net  InterestInterDepartureTimesVector  ETV
vector 858  DataCentricNet.host[85].net  InterestInterDepartureTimesVector  ETV
vector 808  DataCentricNet.host[80].net  InterestInterDepartureTimesVector  ETV
vector 1128  DataCentricNet.host[112].net  InterestInterDepartureTimesVector  ETV
vector 148  DataCentricNet.host[14].net  InterestInterDepartureTimesVector  ETV
vector 628  DataCentricNet.host[62].net  InterestInterDepartureTimesVector  ETV
vector 458  DataCentricNet.host[45].net  InterestInterDepartureTimesVector  ETV
vector 778  DataCentricNet.host[77].net  InterestInterDepartureTimesVector  ETV
vector 8  DataCentricNet.host[0].net  InterestInterDepartureTimesVector  ETV
vector 1038  DataCentricNet.host[103].net  InterestInterDepartureTimesVector  ETV
vector 908  DataCentricNet.host[90].net  InterestInterDepartureTimesVector  ETV
vector 578  DataCentricNet.host[57].net  InterestInterDepartureTimesVector  ETV
vector 18  DataCentricNet.host[1].net  InterestInterDepartureTimesVector  ETV
vector 188  DataCentricNet.host[18].net  InterestInterDepartureTimesVector  ETV
vector 1138  DataCentricNet.host[113].net  InterestInterDepartureTimesVector  ETV
vector 748  DataCentricNet.host[74].net  InterestInterDepartureTimesVector  ETV
vector 968  DataCentricNet.host[96].net  InterestInterDepartureTimesVector  ETV
vector 798  DataCentricNet.host[79].net  InterestInterDepartureTimesVector  ETV
vector 138  DataCentricNet.host[13].net  InterestInterDepartureTimesVector  ETV
vector 68  DataCentricNet.host[6].net  InterestInterDepartureTimesVector  ETV
vector 648  DataCentricNet.host[64].net  InterestInterDepartureTimesVector  ETV
vector 298  DataCentricNet.host[29].net  InterestInterDepartureTimesVector  ETV
vector 1188  DataCentricNet.host[118].net  InterestInterDepartureTimesVector  ETV
vector 78  DataCentricNet.host[7].net  InterestInterDepartureTimesVector  ETV
vector 718  DataCentricNet.host[71].net  InterestInterDepartureTimesVector  ETV
vector 338  DataCentricNet.host[33].net  InterestInterDepartureTimesVector  ETV
vector 378  DataCentricNet.host[37].net  InterestInterDepartureTimesVector  ETV
vector 1078  DataCentricNet.host[107].net  InterestInterDepartureTimesVector  ETV
vector 278  DataCentricNet.host[27].net  InterestInterDepartureTimesVector  ETV
vector 958  DataCentricNet.host[95].net  InterestInterDepartureTimesVector  ETV
vector 738  DataCentricNet.host[73].net  InterestInterDepartureTimesVector  ETV
vector 268  DataCentricNet.host[26].net  InterestInterDepartureTimesVector  ETV
vector 528  DataCentricNet.host[52].net  InterestInterDepartureTimesVector  ETV
vector 218  DataCentricNet.host[21].net  InterestInterDepartureTimesVector  ETV
vector 708  DataCentricNet.host[70].net  InterestInterDepartureTimesVector  ETV
vector 878  DataCentricNet.host[87].net  InterestInterDepartureTimesVector  ETV
vector 678  DataCentricNet.host[67].net  InterestInterDepartureTimesVector  ETV
vector 248  DataCentricNet.host[24].net  InterestInterDepartureTimesVector  ETV
vector 618  DataCentricNet.host[61].net  InterestInterDepartureTimesVector  ETV
vector 1088  DataCentricNet.host[108].net  InterestInterDepartureTimesVector  ETV
vector 358  DataCentricNet.host[35].net  InterestInterDepartureTimesVector  ETV
vector 688  DataCentricNet.host[68].net  InterestInterDepartureTimesVector  ETV
vector 1198  DataCentricNet.host[119].net  InterestInterDepartureTimesVector  ETV
vector 178  DataCentricNet.host[17].net  InterestInterDepartureTimesVector  ETV
vector 488  DataCentricNet.host[48].net  InterestInterDepartureTimesVector  ETV
vector 98  DataCentricNet.host[9].net  InterestInterDepartureTimesVector  ETV
vector 518  DataCentricNet.host[51].net  InterestInterDepartureTimesVector  ETV
vector 308  DataCentricNet.host[30].net  InterestInterDepartureTimesVector  ETV
vector 288  DataCentricNet.host[28].net  InterestInterDepartureTimesVector  ETV
vector 318  DataCentricNet.host[31].net  InterestInterDepartureTimesVector  ETV
vector 448  DataCentricNet.host[44].net  InterestInterDepartureTimesVector  ETV
vector 948  DataCentricNet.host[94].net  InterestInterDepartureTimesVector  ETV
vector 208  DataCentricNet.host[20].net  InterestInterDepartureTimesVector  ETV
vector 638  DataCentricNet.host[63].net  InterestInterDepartureTimesVector  ETV
vector 1118  DataCentricNet.host[111].net  InterestInterDepartureTimesVector  ETV
vector 788  DataCentricNet.host[78].net  InterestInterDepartureTimesVector  ETV
vector 88  DataCentricNet.host[8].net  InterestInterDepartureTimesVector  ETV
vector 1178  DataCentricNet.host[117].net  InterestInterDepartureTimesVector  ETV
vector 238  DataCentricNet.host[23].net  InterestInterDepartureTimesVector  ETV
vector 328  DataCentricNet.host[32].net  InterestInterDepartureTimesVector  ETV
vector 1058  DataCentricNet.host[105].net  InterestInterDepartureTimesVector  ETV
vector 408  DataCentricNet.host[40].net  InterestInterDepartureTimesVector  ETV
vector 388  DataCentricNet.host[38].net  InterestInterDepartureTimesVector  ETV
vector 868  DataCentricNet.host[86].net  InterestInterDepartureTimesVector  ETV
vector 198  DataCentricNet.host[19].net  InterestInterDepartureTimesVector  ETV
vector 848  DataCentricNet.host[84].net  InterestInterDepartu