version 2
run General-0-20120917-13:13:27-252
attr configname General
attr datetime 20120917-13:13:27
attr experiment General
attr inifile omnetpp.ini
attr iterationvars ""
attr iterationvars2 $repetition=0
attr measurement ""
attr network DataCentricNet
attr processid 252
attr repetition 0
attr replication #0
attr resultdir results
attr runnumber 0
attr seedset 0

vector 97  DataCentricNet.host[8].net  AdvertInterDepartureTimesVector  ETV
vector 9  DataCentricNet.host[0].net  AdvertInterDepartureTimesVector  ETV
vector 53  DataCentricNet.host[4].net  AdvertInterDepartureTimesVector  ETV
vector 1377  DataCentricNet.dataCentricNetworkMan  helloPacketFrequency  ETV
vector 1382  DataCentricNet.dataCentricNetworkMan  reinforcementPacketFrequency  ETV
vector 1384  DataCentricNet.dataCentricNetworkMan  breakagePacketFrequency  ETV
vector 64  DataCentricNet.host[5].net  AdvertInterDepartureTimesVector  ETV
vector 647  DataCentricNet.host[58].net  AdvertInterDepartureTimesVector  ETV
vector 1175  DataCentricNet.host[106].net  AdvertInterDepartureTimesVector  ETV
vector 1109  DataCentricNet.host[100].net  AdvertInterDepartureTimesVector  ETV
vector 515  DataCentricNet.host[46].net  AdvertInterDepartureTimesVector  ETV
vector 1351  DataCentricNet.host[122].net  AdvertInterDepartureTimesVector  ETV
vector 658  DataCentricNet.host[59].net  AdvertInterDepartureTimesVector  ETV
vector 504  DataCentricNet.host[45].net  AdvertInterDepartureTimesVector  ETV
vector 1098  DataCentricNet.host[99].net  AdvertInterDepartureTimesVector  ETV
vector 284  DataCentricNet.host[25].net  AdvertInterDepartureTimesVector  ETV
vector 1010  DataCentricNet.host[91].net  AdvertInterDepartureTimesVector  ETV
vector 614  DataCentricNet.host[55].net  AdvertInterDepartureTimesVector  ETV
vector 185  DataCentricNet.host[16].net  AdvertInterDepartureTimesVector  ETV
vector 174  DataCentricNet.host[15].net  AdvertInterDepartureTimesVector  ETV
vector 130  DataCentricNet.host[11].net  AdvertInterDepartureTimesVector  ETV
vector 1032  DataCentricNet.host[93].net  AdvertInterDepartureTimesVector  ETV
vector 724  DataCentricNet.host[65].net  AdvertInterDepartureTimesVector  ETV
vector 471  DataCentricNet.host[42].net  AdvertInterDepartureTimesVector  ETV
vector 801  DataCentricNet.host[72].net  AdvertInterDepartureTimesVector  ETV
vector 988  DataCentricNet.host[89].net  AdvertInterDepartureTimesVector  ETV
vector 405  DataCentricNet.host[36].net  AdvertInterDepartureTimesVector  ETV
vector 119  DataCentricNet.host[10].net  AdvertInterDepartureTimesVector  ETV
vector 262  DataCentricNet.host[23].net  AdvertInterDepartureTimesVector  ETV
vector 361  DataCentricNet.host[32].net  AdvertInterDepartureTimesVector  ETV
vector 1362  DataCentricNet.host[123].net  AdvertInterDepartureTimesVector  ETV
vector 548  DataCentricNet.host[49].net  AdvertInterDepartureTimesVector  ETV
vector 603  DataCentricNet.host[54].net  AdvertInterDepartureTimesVector  ETV
vector 1208  DataCentricNet.host[109].net  AdvertInterDepartureTimesVector  ETV
vector 42  DataCentricNet.host[3].net  AdvertInterDepartureTimesVector  ETV
vector 713  DataCentricNet.host[64].net  AdvertInterDepartureTimesVector  ETV
vector 999  DataCentricNet.host[90].net  AdvertInterDepartureTimesVector  ETV
vector 922  DataCentricNet.host[83].net  AdvertInterDepartureTimesVector  ETV
vector 636  DataCentricNet.host[57].net  AdvertInterDepartureTimesVector  ETV
vector 460  DataCentricNet.host[41].net  AdvertInterDepartureTimesVector  ETV
vector 944  DataCentricNet.host[85].net  AdvertInterDepartureTimesVector  ETV
vector 889  DataCentricNet.host[80].net  AdvertInterDepartureTimesVector  ETV
vector 1241  DataCentricNet.host[112].net  AdvertInterDepartureTimesVector  ETV
vector 86  DataCentricNet.host[7].net  AdvertInterDepartureTimesVector  ETV
vector 1065  DataCentricNet.host[96].net  AdvertInterDepartureTimesVector  ETV
vector 163  DataCentricNet.host[14].net  AdvertInterDepartureTimesVector  ETV
vector 20  DataCentricNet.host[1].net  AdvertInterDepartureTimesVector  ETV
vector 790  DataCentricNet.host[71].net  AdvertInterDepartureTimesVector  ETV
vector 1307  DataCentricNet.host[118].net  AdvertInterDepartureTimesVector  ETV
vector 878  DataCentricNet.host[79].net  AdvertInterDepartureTimesVector  ETV
vector 812  DataCentricNet.host[73].net  AdvertInterDepartureTimesVector  ETV
vector 295  DataCentricNet.host[26].net  AdvertInterDepartureTimesVector  ETV
vector 1021  DataCentricNet.host[92].net  AdvertInterDepartureTimesVector  ETV
vector 779  DataCentricNet.host[70].net  AdvertInterDepartureTimesVector  ETV
vector 240  DataCentricNet.host[21].net  AdvertInterDepartureTimesVector  ETV
vector 845  DataCentricNet.host[76].net  AdvertInterDepartureTimesVector  ETV
vector 1153  DataCentricNet.host[104].net  AdvertInterDepartureTimesVector  ETV
vector 306  DataCentricNet.host[27].net  AdvertInterDepartureTimesVector  ETV
vector 1285  DataCentricNet.host[116].net  AdvertInterDepartureTimesVector  ETV
vector 592  DataCentricNet.host[53].net  AdvertInterDepartureTimesVector  ETV
vector 746  DataCentricNet.host[67].net  AdvertInterDepartureTimesVector  ETV
vector 966  DataCentricNet.host[87].net  AdvertInterDepartureTimesVector  ETV
vector 867  DataCentricNet.host[78].net  AdvertInterDepartureTimesVector  ETV
vector 273  DataCentricNet.host[24].net  AdvertInterDepartureTimesVector  ETV
vector 1230  DataCentricNet.host[111].net  AdvertInterDepartureTimesVector  ETV
vector 757  DataCentricNet.host[68].net  AdvertInterDepartureTimesVector  ETV
vector 1087  DataCentricNet.host[98].net  AdvertInterDepartureTimesVector  ETV
vector 1296  DataCentricNet.host[117].net  AdvertInterDepartureTimesVector  ETV
vector 196  DataCentricNet.host[17].net  AdvertInterDepartureTimesVector  ETV
vector 141  DataCentricNet.host[12].net  AdvertInterDepartureTimesVector  ETV
vector 680  DataCentricNet.host[61].net  AdvertInterDepartureTimesVector  ETV
vector 394  DataCentricNet.host[35].net  AdvertInterDepartureTimesVector  ETV
vector 526  DataCentricNet.host[47].net  AdvertInterDepartureTimesVector  ETV
vector 31  DataCentricNet.host[2].net  AdvertInterDepartureTimesVector  ETV
vector 691  DataCentricNet.host[62].net  AdvertInterDepartureTimesVector  ETV
vector 1373  DataCentricNet.host[124].net  AdvertInterDepartureTimesVector  ETV
vector 625  DataCentricNet.host[56].net  AdvertInterDepartureTimesVector  ETV
vector 482  DataCentricNet.host[43].net  AdvertInterDepartureTimesVector  ETV
vector 1340  DataCentricNet.host[121].net  AdvertInterDepartureTimesVector  ETV
vector 1131  DataCentricNet.host[102].net  AdvertInterDepartureTimesVector  ETV
vector 339  DataCentricNet.host[30].net  AdvertInterDepartureTimesVector  ETV
vector 317  DataCentricNet.host[28].net  AdvertInterDepartureTimesVector  ETV
vector 1318  DataCentricNet.host[119].net  AdvertInterDepartureTimesVector  ETV
vector 493  DataCentricNet.host[44].net  AdvertInterDepartureTimesVector  ETV
vector 1197  DataCentricNet.host[108].net  AdvertInterDepartureTimesVector  ETV
vector 108  DataCentricNet.host[9].net  AdvertInterDepartureTimesVector  ETV
vector 911  DataCentricNet.host[82].net  AdvertInterDepartureTimesVector  ETV
vector 1219  DataCentricNet.host[110].net  AdvertInterDepartureTimesVector  ETV
vector 570  DataCentricNet.host[51].net  AdvertInterDepartureTimesVector  ETV
vector 537  DataCentricNet.host[48].net  AdvertInterDepartureTimesVector  ETV
vector 416  DataCentricNet.host[37].net  AdvertInterDepartureTimesVector  ETV
vector 856  DataCentricNet.host[77].net  AdvertInterDepartureTimesVector  ETV
vector 1142  DataCentricNet.host[103].net  AdvertInterDepartureTimesVector  ETV
vector 207  DataCentricNet.host[18].net  AdvertInterDepartureTimesVector  ETV
vector 251  DataCentricNet.host[22].net  AdvertInterDepartureTimesVector  ETV
vector 328  DataCentricNet.host[29].net  AdvertInterDepartureTimesVector  ETV
vector 1329  DataCentricNet.host[120].net  AdvertInterDepartureTimesVector  ETV
vector 372  DataCentricNet.host[33].net  AdvertInterDepartureTimesVector  ETV
vector 823  DataCentricNet.host[74].net  AdvertInterDepartureTimesVector  ETV
vector 152  DataCentricNet.host[13].net  AdvertInterDepartureTimesVector  ETV
vector 1054  DataCentricNet.host[95].net  AdvertInterDepartureTimesVector  ETV
vector 900  DataCentricNet.host[81].net  AdvertInterDepartureTimesVector  ETV
vector 768  DataCentricNet.host[69].net  AdvertInterDepartureTimesVector  ETV
vector 669  DataCentricNet.host[60].net  AdvertInterDepartureTimesVector  ETV
vector 977  DataCentricNet.host[88].net  AdvertInterDepartureTimesVector  ETV
vector 1120  DataCentricNet.host[101].net  AdvertInterDepartureTimesVector  ETV
vector 1274  DataCentricNet.host[115].net  AdvertInterDepartureTimesVector  ETV
vector 1252  DataCentricNet.host[113].net  AdvertInterDepartureTimesVector  ETV
vector 75  DataCentricNet.host[6].net  AdvertInterDepartureTimesVector  ETV
vector 1186  DataCentricNet.host[107].net  AdvertInterDepartureTimesVector  ETV
vector 955  DataCentricNet.host[86].net  AdvertInterDepartureTimesVector  ETV
vector 427  DataCentricNet.host[38].net  AdvertInterDepartureTimesVector  ETV
vector 834  DataCentricNet.host[75].net  AdvertInterDepartureTimesVector  ETV
vector 350  DataCentricNet.host[31].net  AdvertInterDepartureTimesVector  ETV
vector 229  DataCentricNet.host[20].net  AdvertInterDepartureTimesVector  ETV
vector 1043  DataCentricNet.host[94].net  AdvertInterDepartureTimesVector  ETV
vector 702  DataCentricNet.host[63].net  AdvertInterDepartureTimesVector  ETV
vector 1076  DataCentricNet.host[97].net  AdvertInterDepartureTimesVector  ETV
vector 438  DataCentricNet.host[39].net  AdvertInterDepartureTimesVector  ETV
vector 735  DataCentricNet.host[66].net  AdvertInterDepartureTimesVector  ETV
vector 218  DataCentricNet.host[19].net  AdvertInterDepartureTimesVector  ETV
vector 1263  DataCentricNet.host[114].net  AdvertInterDepartureTimesVector  ETV
vector 449  DataCentricNet.host[40].net  AdvertInterDepartureTimesVector  ETV
vector 559  DataCentricNet.host[50].net  AdvertInterDepartureTimesVector  ETV
vector 933  DataCentricNet.host[84].net  AdvertInterDepartureTimesVector  ETV
vector 1164  DataCentricNet.host[105].net  AdvertInterDepartureTimesVector  ETV
vector 581  DataCentricNet.host[52].net  AdvertInterDepartureTimesVector  ETV
vector 383  DataCentricNet.host[34].net  AdvertInterDepartureTimesVector  ETV
vector 1383  DataCentricNet.dataCentricNetworkMan  dataPacketE2EDelay  ETV
9	1035	1.002284248447	0.002284248447
9	2771	1.004000175918	0.001715927471
9	32379	1.029640206801	0.025640030883
9	33403	1.030574210379	0.000934003578
9	69410	1.074865978225	0.044291767846
9	90231	1.103181167256	0.028315189031
9	96481	1.113132143104	0.009950975848
9	117875	1.142714582802	0.029582439698
9	159629	1.202833113523	0.060118530721
20	33576	1.030574219565	0.002228145895
20	73839	1.079314256342	0.048740036777
20	101939	1.122632254014	0.043317997672
20	112389	1.135090196661	0.012457942647
20	159680	1.202833117026	0.067742920365
31	44347	1.045187711725	0.008963979106
31	52114	1.053658352617	0.008470640892
31	90197	1.103181163718	0.049522811101
31	96526	1.113132149303	0.009950985585
31	112332	1.135090190211	0.021958040908
31	117857	1.142714579304	0.007624389093
31	143268	1.177338579304	0.034624
31	159557	1.202833103527	0.025494524223
31	192235	1.250254969338	0.047421865811
42	32370	1.02964020502	0.014230136286
42	33408	1.030574210761	0.000934005741
42	69416	1.074865978482	0.044291767721
42	90217	1.103181165488	0.028315187006
42	112362	1.135090192762	0.031909027274
42	117869	1.142714582477	0.007624389715
42	159593	1.202833110498	0.060118528021
53	1092	1.00228425183	0.00228425183
53	19267	1.013186325382	0.010902073552
53	20264	1.014228163457	0.001041838075
53	24094	1.018191302684	0.003963139227
53	24867	1.018927659429	0.000736356745
53	26915	1.021445163918	0.002517504489
53	33515	1.030574216262	0.009129052344
53	39844	1.040045249175	0.009471032913
53	49044	1.050112874232	0.010067625057
53	69491	1.074865982562	0.02475310833
53	73892	1.079314260391	0.004448277829
53	106208	1.128256726026	0.048942465635
53	118054	1.142714594897	0.014457868871
53	159821	1.202833125654	0.060118530757
53	193315	1.251992606439	0.049159480785
64	6266	1.006043712728	0.006043712728
64	17098	1.011043452147	0.004999739419
64	18038	1.011943555485	0.000900103338
64	20719	1.014377733741	0.002434178256
64	29746	1.025805629754	0.011427896013
64	31392	1.028010393357	0.002204763603
64	37954	1.037109203717	0.00909881036
64	69558	1.074865985633	0.037756781916
64	112487	1.135090206806	0.060224221173
64	159728	1.202833118867	0.067742912061
64	192211	1.250254966936	0.047421848069
75	117946	1.142714588237	0.005085585267
75	119009	1.143882444942	0.001167856705
75	153279	1.192978819091	0.049096374149
75	159731	1.202833119172	0.009854300081
75	193346	1.251992609157	0.049159489985
86	33537	1.03057421744	0.00222814422
86	73789	1.079314251103	0.048740033663
86	101958	1.12263225534	0.043318004237
86	112404	1.135090197372	0.012457942032
86	159692	1.202833117361	0.067742919989
97	1023	1.002284247565	0.002284247565
97	1918	1.0032464528	0.000962205235
97	26943	1.02144516897	0.01819871617
97	33497	1.03057421548	0.00912904651
97	38752	1.038294851322	0.007720635842
97	39798	1.040045245946	0.001750394624
97	49089	1.050112877753	0.010067631807
97	69480	1.074865982262	0.024753104509
97	73842	1.079314256505	0.004448274243
97	102005	1.122632258305	0.0433180018
97	118001	1.142714591078	0.020082332773
97	159779	1.202833121822	0.060118530744
97	193296	1.25199260447	0.049159482648
108	49056	1.050112875358	0.006161137914
108	57680	1.061567783196	0.011454907838
108	73922	1.079314262002	0.017746478806
108	163451	1.207375868473	0.128061606471
108	193349	1.251992609227	0.044616740754
119	28777	1.02448410871	0.001801515421
119	29649	1.025805619969	0.001321511259
119	34026	1.031966534781	0.006160914812
119	51925	1.053481149864	0.021514615083
119	57893	1.061710534779	0.008229384915
119	69374	1.07486597585	0.013155441071
119	73176	1.078478038479	0.003612062629
119	159749	1.202833119829	0.12435508135
119	192268	1.250254972122	0.047421852293
119	210840	1.275254534778	0.024999562656
130	25143	1.018971300568	0.004593566878
130	29687	1.025805625868	0.0068343253
130	33451	1.030574213189	0.004768587321
130	69486	1.074865982397	0.044291769208
130	78515	1.085654356721	0.010788374324
130	90238	1.103181168117	0.017526811396
130	96497	1.113132146247	0.00995097813
130	104791	1.126057781444	0.012925635197
130	112416	1.13509019826	0.009032416816
130	117866	1.142714581598	0.007624383338
130	159614	1.202833111933	0.060118530335
130	192181	1.250254962218	0.047421850285
141	39887	1.040045251845	0.001750402068
141	49069	1.050112876375	0.01006762453
141	57659	1.061567781551	0.011454905176
141	69649	1.074865992183	0.013298210632
141	73910	1.079314261002	0.004448268819
141	76002	1.081518307501	0.002204046499
141	163422	1.207375865942	0.125857558441
141	193328	1.251992607247	0.044616741305
152	90176	1.10318116194	0.03762009719
152	101922	1.122632251139	0.019451089199
152	112353	1.135090192092	0.012457940953
152	120807	1.145802358941	0.010712166849
152	159620	1.202833112771	0.05703075383
152	192331	1.250254979386	0.047421866615
163	33553	1.030574218173	0.000934005226
163	52130	1.053658355239	0.023084137066
163	90164	1.103181159482	0.049522804243
163	112320	1.135090188059	0.031909028577
163	159587	1.2028331099	0.067742921841
174	24389	1.018217727431	0.002807656179
174	25085	1.01897129428	0.000753566849
174	29703	1.025805626769	0.006834332489
174	33425	1.030574211458	0.004768584689
174	69445	1.074865980327	0.044291768869
174	75619	1.081172079553	0.006306099226
174	90194	1.103181163657	0.022009084104
174	96489	1.113132145362	0.009950981705
174	112356	1.135090192599	0.021958047237
174	159578	1.202833107509	0.06774291491
174	192220	1.250254968158	0.047421860649
185	24246	1.018191315565	0.00381358189
185	25187	1.018971305469	0.000779989904
185	29640	1.025805619391	0.006834313922
185	31330	1.028010388217	0.002204768826
185	47973	1.048662059254	0.020651671037
185	54023	1.056273181329	0.007611122075
185	68515	1.073990609513	0.017717428184
185	69425	1.074865978856	0.000875369343
185	75648	1.081172083337	0.006306104481
185	82598	1.091427720521	0.010255637184
185	90313	1.103181177127	0.011753456606
185	112474	1.135090205196	0.031909028069
185	159707	1.202833118027	0.067742912831
185	192196	1.250254965337	0.04742184731
196	39863	1.040045249923	0.0050202766
196	48999	1.050112869077	0.010067619154
196	69598	1.074865987295	0.024753118218
196	73886	1.079314260227	0.004448272932
196	163445	1.207375868152	0.128061607925
196	193308	1.251992605028	0.044616736876
207	52161	1.053658360019	0.017434628738
207	73899	1.079314260572	0.025655900553
207	90179	1.103181162067	0.023866901495
207	101934	1.122632253309	0.019451091242
207	112365	1.135090193013	0.012457939704
207	159650	1.202833115054	0.067742922041
207	208063	1.271153122377	0.068320007323
218	141970	1.17486525496	0.013644744411
218	157535	1.199369544988	0.024504290028
218	159809	1.202833125218	0.00346358023
218	178198	1.22617405465	0.023340929432
218	231002	1.307288549546	0.081114494896
229	129207	1.157180580077	0.032185761093
229	222710	1.291526766221	0.134346186144
240	39780	1.040045244199	0.005020271522
240	67698	1.072972748962	0.032927504763
240	69472	1.074865981941	0.001893232979
240	80241	1.087932748961	0.01306676702
240	83049	1.092372748961	0.00444
240	101986	1.122632257192	0.030259508231
240	117998	1.142714591019	0.020082333827
240	159725	1.202833118744	0.060118527725
251	53476	1.055758128203	0.003113639885
251	57638	1.061567780023	0.00580965182
251	69571	1.074865986525	0.013298206502
251	73889	1.079314260384	0.004448273859
251	129651	1.158326201154	0.07901194077
251	149309	1.18654166112	0.028215459966
251	163467	1.207375869865	0.020834208745
251	193321	1.25199260673	0.044616736865
262	28780	1.024484109416	0.001801514519
262	29643	1.025805619412	0.001321509996
262	69347	1.074865969625	0.049060350213
262	112426	1.135090200207	0.060224230582
262	117927	1.142714586332	0.007624386125
262	159635	1.20283311427	0.060118527938
262	192262	1.25025497164	0.04742185737
273	39812	1.040045246905	0.0050202767
273	49020	1.050112871572	0.010067624667
273	69555	1.074865985512	0.02475311394
273	73860	1.079314257436	0.004448271924
273	163414	1.207375864919	0.128061607483
273	193276	1.251992602141	0.044616737222
284	22389	1.016197378156	0.001819644312
284	24436	1.01821773445	0.002020356294
284	25159	1.018971302323	0.000753567873
284	29156	1.024856020497	0.005884718174
284	29752	1.025805629934	0.000949609437
284	52145	1.053658358026	0.027852728092
284	75613	1.08117207771	0.027513719684
284	90235	1.103181168009	0.022009090299
284	96547	1.113132150506	0.009950982497
284	112413	1.135090198022	0.021958047516
284	117891	1.142714583553	0.007624385531
284	153578	1.193416020493	0.05070143694
284	159608	1.20283311148	0.009417090987
284	192184	1.250254962698	0.047421851218
284	260524	1.356462962696	0.106207999998
284	334217	1.502582962694	0.146119999998
295	39771	1.040045242215	0.005020271908
295	62968	1.067773242213	0.027727999998
295	69451	1.07486598069	0.007092738477
295	73777	1.079314248677	0.004448267987
295	80235	1.087932746685	0.008618498008
295	83043	1.092372746685	0.00444
295	101976	1.122632256495	0.03025950981
295	117980	1.142714589977	0.020082333482
295	159719	1.202833118499	0.060118528522
306	39789	1.04004524549	0.005020280798
306	49107	1.05011287938	0.01006763389
306	69477	1.07486598223	0.02475310285
306	73820	1.079314255219	0.004448272989
306	101982	1.122632256676	0.043318001457
306	117974	1.142714589545	0.020082332869
306	159752	1.202833120149	0.060118530604
317	49011	1.05011287041	0.003641130081
317	57644	1.061567780944	0.011454910534
317	69626	1.074865989889	0.013298208945
317	73902	1.079314260634	0.004448270745
317	163459	1.207375869169	0.128061608535
317	193332	1.251992607432	0.044616738263
328	73875	1.079314258721	0.04563343202
328	101962	1.122632255518	0.043317996797
328	112383	1.135090196036	0.012457940518
328	159698	1.202833117669	0.067742921633
328	208040	1.271153120051	0.068320002382
339	49005	1.050112870122	0.003641131174
339	57623	1.061567778897	0.011454908775
339	69588	1.07486598712	0.013298208223
339	73864	1.079314257805	0.004448270685
339	163426	1.207375866437	0.128061608632
339	193289	1.25199260401	0.044616737573
350	129203	1.157180579328	0.032185760325
350	222719	1.291526767053	0.134346187725
361	28783	1.024484109563	0.001801514803
361	29608	1.025805617702	0.001321508139
361	33363	1.030574202894	0.004768585192
361	69353	1.074865971421	0.044291768527
361	117916	1.142714585614	0.067848614193
361	159644	1.202833114735	0.060118529121
361	192244	1.250254970455	0.04742185572
361	193401	1.251992613515	0.00173764306
372	88503	1.101134539487	0.069167999997
372	159665	1.202833115945	0.101698576458
372	193397	1.251992612914	0.049159496969
372	214173	1.27937870978	0.027386096866
372	231943	1.309066388881	0.029687679101
372	273426	1.379390202648	0.070323813767
372	281153	1.393545355111	0.014155152463
372	360622	1.56247948055	0.168934125439
372	409432	1.719194709779	0.156715229229
383	301461	1.43333208146	0.153953371134
394	39947	1.040045255522	0.001750403909
394	49124	1.05011288029	0.010067624768
394	73928	1.079314262956	0.029201382666
394	163433	1.207375866946	0.12806160399
394	193375	1.251992611157	0.044616744211
405	28768	1.024484108427	0.001801515577
405	29619	1.025805618186	0.001321509759
405	31321	1.028010384769	0.002204766583
405	69356	1.074865972202	0.046855587433
405	73167	1.078478037964	0.003612065762
405	112458	1.135090203161	0.056612165197
405	159674	1.20283311653	0.067742913369
405	192247	1.250254970647	0.047421854117
416	49907	1.051234732179	0.017553905059
416	73872	1.07931425861	0.028079526431
416	101979	1.122632256509	0.043317997899
416	112393	1.135090196724	0.012457940215
416	159716	1.202833118441	0.067742921717
416	208044	1.271153120131	0.06832000169
427	119012	1.143882445182	0.00625344202
427	153297	1.19297882075	0.049096375568
427	159782	1.202833122387	0.009854301637
427	222664	1.291526761304	0.088693638917
438	130470	1.160000978395	0.03174425504
438	138085	1.169310187637	0.009309209242
438	144135	1.178618815552	0.009308627915
438	193299	1.251992604473	0.073373788921
449	142797	1.175964565438	0.021395311486
449	157514	1.199369542161	0.023404976723
449	178207	1.226174055775	0.026804513614
460	33441	1.0305742123	0.000934005892
460	90212	1.103181164937	0.072606952637
460	112344	1.135090191818	0.031909026881
460	117886	1.142714583526	0.007624391708
460	159596	1.202833110535	0.060118527009
471	25180	1.018971304844	0.004593569735
471	27908	1.022682587587	0.003711282743
471	29657	1.025805622648	0.003123035061
471	31327	1.02801038621	0.002204763562
471	46906	1.047731206402	0.019720820192
471	54020	1.056273181007	0.008541974605
471	64548	1.069531717474	0.013258536467
471	69398	1.074865977886	0.005334260412
471	90316	1.103181177278	0.028315199392
471	112463	1.135090203746	0.031909026468
471	159668	1.202833116138	0.067742912392
471	192214	1.250254967148	0.04742185101
482	46656	1.047728925136	0.009434079976
482	49149	1.050112883004	0.002383957868
482	73829	1.079314255646	0.029201372642
482	102044	1.122632263179	0.043318007533
482	159812	1.202833125475	0.080200862296
493	49047	1.050112874983	0.006161134168
493	57692	1.061567784754	0.011454909771
493	73942	1.079314264161	0.017746479407
493	117069	1.141794831023	0.062480566862
493	163475	1.207375871379	0.065581040356
493	193388	1.251992611522	0.044616740143
504	22345	1.016197371922	0.000787298127
504	24378	1.018217725254	0.002020353332
504	25076	1.018971293951	0.000753568697
504	33487	1.030574214984	0.011602921033
504	90167	1.103181160047	0.072606945063
504	96519	1.113132148808	0.009950988761
504	112329	1.135090189742	0.021958040934
504	117860	1.142714579337	0.007624389595
504	159572	1.202833106652	0.060118527315
504	192250	1.25025497072	0.047421864068
515	6287	1.006043719434	0.00306073032
515	17118	1.011043455026	0.004999735592
515	18049	1.011943558287	0.000900103261
515	29749	1.02580562989	0.013862071603
515	30454	1.026849174108	0.001043544218
515	31421	1.028010397455	0.001161223347
515	37937	1.037109200254	0.009098802799
515	52212	1.053658367387	0.016549167133
515	69614	1.074865988212	0.021207620825
515	75653	1.081172083827	0.006306095615
515	90322	1.103181177702	0.022009093875
515	112493	1.135090207061	0.031909029359
515	159746	1.202833119669	0.067742912608
515	192178	1.250254962158	0.047421842489
526	41062	1.04137196179	0.003077113789
526	42053	1.042660909251	0.001288947461
526	49154	1.050112883187	0.007451973936
526	73795	1.079314252025	0.029201368838
526	102008	1.12263225855	0.043318006525
526	112429	1.135090200343	0.012457941793
526	159761	1.202833120589	0.067742920246
537	49130	1.050112880746	0.006161142321
537	72912	1.078455460866	0.02834258012
537	73946	1.07931426465	0.000858803784
537	84189	1.093960336709	0.014646072059
537	113243	1.136392002629	0.04243166592
537	132988	1.163198237676	0.026806235047
537	163455	1.20737586886	0.044177631184
537	193394	1.251992612737	0.044616743877
548	29684	1.025805625661	0.00312303009
548	33377	1.030574206974	0.004768581313
548	69368	1.074865975291	0.044291768317
548	90246	1.103181169715	0.028315194424
548	112374	1.135090194512	0.031909024797
548	117881	1.142714583418	0.007624388906
548	159581	1.202833108372	0.060118524954
548	160372	1.203868368379	0.001035260007
548	192259	1.250254971441	0.046386603062
559	145835	1.180954011553	0.019733500427
559	159827	1.202833125831	0.021879114278
559	178219	1.226174057267	0.023340931436
559	261241	1.357727468004	0.131553410737
570	49118	1.050112880071	0.006161140688
570	72867	1.078455457511	0.02834257744
570	73918	1.079314261957	0.000858804446
570	110071	1.133144820738	0.053830558781
570	163429	1.207375866604	0.074231045866
570	193372	1.251992611025	0.044616744421
581	151642	1.19005783853	0.028837326183
581	159740	1.202833119319	0.012775280789
581	178201	1.226174054793	0.023340935474
581	193383	1.251992611411	0.025818556618
592	39795	1.040045245896	0.005020278501
592	49083	1.050112877016	0.01006763112
592	69563	1.074865985905	0.024753108889
592	73832	1.079314255834	0.004448269929
592	102029	1.122632261707	0.043318005873
592	118051	1.142714594699	0.020082332992
592	159806	1.202833124807	0.060118530108
592	193281	1.251992602827	0.04915947802
603	29762	1.025805630211	0.003123035896
603	52157	1.053658359143	0.027852728932
603	52655	1.054702034047	0.001043674904
603	69467	1.074865981564	0.020163947517
603	73142	1.078478034047	0.003612052483
603	82610	1.091427722417	0.01294968837
603	90249	1.103181169957	0.01175344754
603	112380	1.135090195131	0.031909025174
603	159575	1.202833107404	0.067742912273
603	192229	1.250254969051	0.047421861647
614	24234	1.018191313866	0.003813578623
614	25152	1.018971301983	0.000779988117
614	29625	1.025805618348	0.006834316365
614	31333	1.028010388249	0.002204769901
614	69380	1.074865975969	0.04685558772
614	73157	1.078478037039	0.00361206107
614	75637	1.081172082	0.002694044961
614	82607	1.091427722086	0.010255640086
614	90286	1.103181174421	0.011753452335
614	112441	1.135090202254	0.031909027833
614	159656	1.202833115414	0.06774291316
614	192199	1.250254965995	0.047421850581
625	44377	1.045187712537	0.008963979423
625	52118	1.053658353925	0.008470641388
625	55963	1.059152439401	0.005494085476
625	90205	1.103181164345	0.044028724944
625	96560	1.113132151179	0.009950986834
625	112326	1.135090189368	0.021958038189
625	117863	1.142714581313	0.007624391945
625	192253	1.250254970855	0.107540389542
636	33430	1.030574211851	0.015164144299
636	69434	1.074865979413	0.044291767562
636	96478	1.113132143057	0.038266163644
636	117919	1.142714585889	0.029582442832
636	159686	1.202833117181	0.060118531292
647	6269	1.006043714608	0.003060729698
647	17095	1.011043452082	0.004999737474
647	18878	1.012790602813	0.001747150731
647	25209	1.018971308439	0.006180705626
647	29720	1.025805627447	0.006834319008
647	31389	1.02801039306	0.002204765613
647	64537	1.069531714606	0.041521321546
647	69534	1.074865984523	0.005334269917
647	75656	1.081172083945	0.006306099422
647	90319	1.103181177637	0.022009093692
647	112478	1.135090205535	0.031909027898
647	159704	1.202833117741	0.067742912206
647	192187	1.250254963101	0.04742184536
658	17088	1.011043451172	0.008060468746
658	18875	1.012790600329	0.001747149157
658	25212	1.018971308667	0.006180708338
658	29729	1.025805628271	0.006834319604
658	31376	1.028010391999	0.002204763728
658	69524	1.074865984033	0.046855592034
658	90331	1.103181178773	0.02831519474
658	112482	1.135090205679	0.031909026906
658	159701	1.20283311774	0.067742912061
658	192202	1.250254966113	0.047421848373
669	117010	1.141794824041	0.013538103185
669	129233	1.157180584282	0.015385760241
680	39895	1.040045252265	0.001750402057
680	49075	1.050112876745	0.01006762448
680	57668	1.061567782731	0.011454905986
680	73896	1.079314260533	0.017746477802
680	163418	1.20737586573	0.128061605197
680	193335	1.251992607636	0.044616741906
691	44357	1.045187711941	0.008963981296
691	52121	1.053658354154	0.008470642213
691	90173	1.103181161405	0.049522807251
691	159569	1.202833106507	0.099651945102
691	192288	1.250254975118	0.047421868611
702	129216	1.157180581397	0.028923860392
702	222729	1.291526767355	0.134346185958
713	33395	1.030574209596	0.00093400066
713	69383	1.074865976071	0.044291766475
713	101103	1.121301648323	0.046435672252
713	117932	1.142714587343	0.02141293902
713	159632	1.202833114252	0.060118526909
724	25174	1.018971304576	0.004593572221
724	29668	1.02580562391	0.006834319334
724	31347	1.028010389056	0.002204765146
724	54014	1.056273178613	0.028262789557
724	64540	1.069531716063	0.01325853745
724	69437	1.074865979595	0.005334263532
724	75642	1.081172082817	0.006306103222
724	90302	1.103181175651	0.022009092834
724	112451	1.135090202691	0.03190902704
724	159647	1.202833114941	0.06774291225
724	192193	1.250254964338	0.047421849397
735	138096	1.16931018893	0.014740941967
746	39801	1.040045246029	0.005020278122
746	49035	1.050112872669	0.01006762664