version 2
run General-0-20120804-16:22:25-236
attr configname General
attr datetime 20120804-16:22:25
attr experiment General
attr inifile omnetpp.ini
attr iterationvars ""
attr iterationvars2 $repetition=0
attr measurement ""
attr network DataCentricNet
attr processid 236
attr repetition 0
attr replication #0
attr resultdir results
attr runnumber 0
attr seedset 0

vector 700  DataCentricNet.dataCentricNetworkMan  ControlPackets  ETV
vector 701  DataCentricNet.dataCentricNetworkMan  controlPacketFrequency  ETV
vector 702  DataCentricNet.dataCentricNetworkMan  helloPacketFrequency  ETV
vector 703  DataCentricNet.dataCentricNetworkMan  helloBackPacketFrequency  ETV
vector 704  DataCentricNet.dataCentricNetworkMan  bcastInterestPacketFrequency  ETV
vector 705  DataCentricNet.dataCentricNetworkMan  ucastInterestPacketFrequency  ETV
vector 706  DataCentricNet.dataCentricNetworkMan  advertPacketFrequency  ETV
vector 707  DataCentricNet.dataCentricNetworkMan  reinforcementPacketFrequency  ETV
vector 328  DataCentricNet.host[46].net  TotalInterestArrivals  ETV
vector 419  DataCentricNet.host[59].net  TotalInterestArrivals  ETV
vector 412  DataCentricNet.host[58].net  TotalInterestArrivals  ETV
vector 461  DataCentricNet.host[65].net  TotalInterestArrivals  ETV
vector 657  DataCentricNet.host[93].net  TotalInterestArrivals  ETV
vector 510  DataCentricNet.host[72].net  TotalInterestArrivals  ETV
vector 300  DataCentricNet.host[42].net  TotalInterestArrivals  ETV
vector 118  DataCentricNet.host[16].net  TotalInterestArrivals  ETV
vector 643  DataCentricNet.host[91].net  TotalInterestArrivals  ETV
vector 391  DataCentricNet.host[55].net  TotalInterestArrivals  ETV
vector 76  DataCentricNet.host[10].net  TotalInterestArrivals  ETV
vector 181  DataCentricNet.host[25].net  TotalInterestArrivals  ETV
vector 83  DataCentricNet.host[11].net  TotalInterestArrivals  ETV
vector 384  DataCentricNet.host[54].net  TotalInterestArrivals  ETV
vector 258  DataCentricNet.host[36].net  TotalInterestArrivals  ETV
vector 629  DataCentricNet.host[89].net  TotalInterestArrivals  ETV
vector 699  DataCentricNet.host[99].net  TotalInterestArrivals  ETV
vector 167  DataCentricNet.host[23].net  TotalInterestArrivals  ETV
vector 230  DataCentricNet.host[32].net  TotalInterestArrivals  ETV
vector 349  DataCentricNet.host[49].net  TotalInterestArrivals  ETV
vector 237  DataCentricNet.host[33].net  TotalInterestArrivals  ETV
vector 573  DataCentricNet.host[81].net  TotalInterestArrivals  ETV
vector 594  DataCentricNet.host[84].net  TotalInterestArrivals  ETV
vector 111  DataCentricNet.host[15].net  TotalInterestArrivals  ETV
vector 20  DataCentricNet.host[2].net  TotalInterestArrivals  ETV
vector 244  DataCentricNet.host[34].net  TotalInterestArrivals  ETV
vector 398  DataCentricNet.host[56].net  TotalInterestArrivals  ETV
vector 356  DataCentricNet.host[50].net  TotalInterestArrivals  ETV
vector 370  DataCentricNet.host[52].net  TotalInterestArrivals  ETV
vector 139  DataCentricNet.host[19].net  TotalInterestArrivals  ETV
vector 321  DataCentricNet.host[45].net  TotalInterestArrivals  ETV
vector 272  DataCentricNet.host[38].net  TotalInterestArrivals  ETV
vector 48  DataCentricNet.host[6].net  TotalInterestArrivals  ETV
vector 6  DataCentricNet.host[0].net  TotalInterestArrivals  ETV
vector 545  DataCentricNet.host[77].net  TotalInterestArrivals  ETV
vector 608  DataCentricNet.host[86].net  TotalInterestArrivals  ETV
vector 405  DataCentricNet.host[57].net  TotalInterestArrivals  ETV
vector 286  DataCentricNet.host[40].net  TotalInterestArrivals  ETV
vector 27  DataCentricNet.host[3].net  TotalInterestArrivals  ETV
vector 587  DataCentricNet.host[83].net  TotalInterestArrivals  ETV
vector 531  DataCentricNet.host[75].net  TotalInterestArrivals  ETV
vector 454  DataCentricNet.host[64].net  TotalInterestArrivals  ETV
vector 440  DataCentricNet.host[62].net  TotalInterestArrivals  ETV
vector 636  DataCentricNet.host[90].net  TotalInterestArrivals  ETV
vector 293  DataCentricNet.host[41].net  TotalInterestArrivals  ETV
vector 601  DataCentricNet.host[85].net  TotalInterestArrivals  ETV
vector 566  DataCentricNet.host[80].net  TotalInterestArrivals  ETV
vector 104  DataCentricNet.host[14].net  TotalInterestArrivals  ETV
vector 195  DataCentricNet.host[27].net  TotalInterestArrivals  ETV
vector 62  DataCentricNet.host[8].net  TotalInterestArrivals  ETV
vector 34  DataCentricNet.host[4].net  TotalInterestArrivals  ETV
vector 496  DataCentricNet.host[70].net  TotalInterestArrivals  ETV
vector 524  DataCentricNet.host[74].net  TotalInterestArrivals  ETV
vector 146  DataCentricNet.host[20].net  TotalInterestArrivals  ETV
vector 447  DataCentricNet.host[63].net  TotalInterestArrivals  ETV
vector 489  DataCentricNet.host[69].net  TotalInterestArrivals  ETV
vector 188  DataCentricNet.host[26].net  TotalInterestArrivals  ETV
vector 517  DataCentricNet.host[73].net  TotalInterestArrivals  ETV
vector 97  DataCentricNet.host[13].net  TotalInterestArrivals  ETV
vector 580  DataCentricNet.host[82].net  TotalInterestArrivals  ETV
vector 468  DataCentricNet.host[66].net  TotalInterestArrivals  ETV
vector 279  DataCentricNet.host[39].net  TotalInterestArrivals  ETV
vector 552  DataCentricNet.host[78].net  TotalInterestArrivals  ETV
vector 153  DataCentricNet.host[21].net  TotalInterestArrivals  ETV
vector 678  DataCentricNet.host[96].net  TotalInterestArrivals  ETV
vector 475  DataCentricNet.host[67].net  TotalInterestArrivals  ETV
vector 622  DataCentricNet.host[88].net  TotalInterestArrivals  ETV
vector 13  DataCentricNet.host[1].net  TotalInterestArrivals  ETV
vector 55  DataCentricNet.host[7].net  TotalInterestArrivals  ETV
vector 615  DataCentricNet.host[87].net  TotalInterestArrivals  ETV
vector 650  DataCentricNet.host[92].net  TotalInterestArrivals  ETV
vector 223  DataCentricNet.host[31].net  TotalInterestArrivals  ETV
vector 377  DataCentricNet.host[53].net  TotalInterestArrivals  ETV
vector 132  DataCentricNet.host[18].net  TotalInterestArrivals  ETV
vector 664  DataCentricNet.host[94].net  TotalInterestArrivals  ETV
vector 503  DataCentricNet.host[71].net  TotalInterestArrivals  ETV
vector 174  DataCentricNet.host[24].net  TotalInterestArrivals  ETV
vector 671  DataCentricNet.host[95].net  TotalInterestArrivals  ETV
vector 538  DataCentricNet.host[76].net  TotalInterestArrivals  ETV
vector 685  DataCentricNet.host[97].net  TotalInterestArrivals  ETV
vector 559  DataCentricNet.host[79].net  TotalInterestArrivals  ETV
vector 482  DataCentricNet.host[68].net  TotalInterestArrivals  ETV
vector 335  DataCentricNet.host[47].net  TotalInterestArrivals  ETV
vector 209  DataCentricNet.host[29].net  TotalInterestArrivals  ETV
vector 160  DataCentricNet.host[22].net  TotalInterestArrivals  ETV
vector 125  DataCentricNet.host[17].net  TotalInterestArrivals  ETV
vector 265  DataCentricNet.host[37].net  TotalInterestArrivals  ETV
vector 426  DataCentricNet.host[60].net  TotalInterestArrivals  ETV
vector 216  DataCentricNet.host[30].net  TotalInterestArrivals  ETV
vector 692  DataCentricNet.host[98].net  TotalInterestArrivals  ETV
vector 307  DataCentricNet.host[43].net  TotalInterestArrivals  ETV
vector 202  DataCentricNet.host[28].net  TotalInterestArrivals  ETV
vector 90  DataCentricNet.host[12].net  TotalInterestArrivals  ETV
vector 433  DataCentricNet.host[61].net  TotalInterestArrivals  ETV
vector 69  DataCentricNet.host[9].net  TotalInterestArrivals  ETV
vector 314  DataCentricNet.host[44].net  TotalInterestArrivals  ETV
vector 251  DataCentricNet.host[35].net  TotalInterestArrivals  ETV
vector 363  DataCentricNet.host[51].net  TotalInterestArrivals  ETV
vector 342  DataCentricNet.host[48].net  TotalInterestArrivals  ETV
vector 41  DataCentricNet.host[5].net  TotalInterestArrivals  ETV
vector 4  DataCentricNet.host[0].net  neighbourLqis  ETV
vector 5  DataCentricNet.host[0].net  RangeLqis  ETV
vector 11  DataCentricNet.host[1].net  neighbourLqis  ETV
vector 12  DataCentricNet.host[1].net  RangeLqis  ETV
vector 18  DataCentricNet.host[2].net  neighbourLqis  ETV
vector 19  DataCentricNet.host[2].net  RangeLqis  ETV
vector 25  DataCentricNet.host[3].net  neighbourLqis  ETV
vector 26  DataCentricNet.host[3].net  RangeLqis  ETV
vector 32  DataCentricNet.host[4].net  neighbourLqis  ETV
vector 33  DataCentricNet.host[4].net  RangeLqis  ETV
vector 39  DataCentricNet.host[5].net  neighbourLqis  ETV
vector 40  DataCentricNet.host[5].net  RangeLqis  ETV
vector 46  DataCentricNet.host[6].net  neighbourLqis  ETV
vector 47  DataCentricNet.host[6].net  RangeLqis  ETV
vector 53  DataCentricNet.host[7].net  neighbourLqis  ETV
vector 54  DataCentricNet.host[7].net  RangeLqis  ETV
vector 60  DataCentricNet.host[8].net  neighbourLqis  ETV
vector 61  DataCentricNet.host[8].net  RangeLqis  ETV
vector 67  DataCentricNet.host[9].net  neighbourLqis  ETV
vector 68  DataCentricNet.host[9].net  RangeLqis  ETV
vector 74  DataCentricNet.host[10].net  neighbourLqis  ETV
vector 75  DataCentricNet.host[10].net  RangeLqis  ETV
vector 81  DataCentricNet.host[11].net  neighbourLqis  ETV
vector 82  DataCentricNet.host[11].net  RangeLqis  ETV
vector 88  DataCentricNet.host[12].net  neighbourLqis  ETV
vector 89  DataCentricNet.host[12].net  RangeLqis  ETV
vector 95  DataCentricNet.host[13].net  neighbourLqis  ETV
vector 96  DataCentricNet.host[13].net  RangeLqis  ETV
vector 102  DataCentricNet.host[14].net  neighbourLqis  ETV
vector 103  DataCentricNet.host[14].net  RangeLqis  ETV
vector 109  DataCentricNet.host[15].net  neighbourLqis  ETV
vector 110  DataCentricNet.host[15].net  RangeLqis  ETV
vector 116  DataCentricNet.host[16].net  neighbourLqis  ETV
vector 117  DataCentricNet.host[16].net  RangeLqis  ETV
vector 123  DataCentricNet.host[17].net  neighbourLqis  ETV
vector 124  DataCentricNet.host[17].net  RangeLqis  ETV
vector 130  DataCentricNet.host[18].net  neighbourLqis  ETV
vector 131  DataCentricNet.host[18].net  RangeLqis  ETV
vector 137  DataCentricNet.host[19].net  neighbourLqis  ETV
vector 138  DataCentricNet.host[19].net  RangeLqis  ETV
vector 144  DataCentricNet.host[20].net  neighbourLqis  ETV
vector 145  DataCentricNet.host[20].net  RangeLqis  ETV
vector 151  DataCentricNet.host[21].net  neighbourLqis  ETV
vector 152  DataCentricNet.host[21].net  RangeLqis  ETV
vector 158  DataCentricNet.host[22].net  neighbourLqis  ETV
vector 159  DataCentricNet.host[22].net  RangeLqis  ETV
vector 165  DataCentricNet.host[23].net  neighbourLqis  ETV
vector 166  DataCentricNet.host[23].net  RangeLqis  ETV
vector 172  DataCentricNet.host[24].net  neighbourLqis  ETV
vector 173  DataCentricNet.host[24].net  RangeLqis  ETV
vector 179  DataCentricNet.host[25].net  neighbourLqis  ETV
vector 180  DataCentricNet.host[25].net  RangeLqis  ETV
vector 186  DataCentricNet.host[26].net  neighbourLqis  ETV
vector 187  DataCentricNet.host[26].net  RangeLqis  ETV
vector 193  DataCentricNet.host[27].net  neighbourLqis  ETV
vector 194  DataCentricNet.host[27].net  RangeLqis  ETV
vector 200  DataCentricNet.host[28].net  neighbourLqis  ETV
vector 201  DataCentricNet.host[28].net  RangeLqis  ETV
vector 207  DataCentricNet.host[29].net  neighbourLqis  ETV
vector 208  DataCentricNet.host[29].net  RangeLqis  ETV
vector 214  DataCentricNet.host[30].net  neighbourLqis  ETV
vector 215  DataCentricNet.host[30].net  RangeLqis  ETV
vector 221  DataCentricNet.host[31].net  neighbourLqis  ETV
vector 222  DataCentricNet.host[31].net  RangeLqis  ETV
vector 228  DataCentricNet.host[32].net  neighbourLqis  ETV
vector 229  DataCentricNet.host[32].net  RangeLqis  ETV
vector 235  DataCentricNet.host[33].net  neighbourLqis  ETV
vector 236  DataCentricNet.host[33].net  RangeLqis  ETV
vector 242  DataCentricNet.host[34].net  neighbourLqis  ETV
vector 243  DataCentricNet.host[34].net  RangeLqis  ETV
vector 249  DataCentricNet.host[35].net  neighbourLqis  ETV
vector 250  DataCentricNet.host[35].net  RangeLqis  ETV
vector 256  DataCentricNet.host[36].net  neighbourLqis  ETV
vector 257  DataCentricNet.host[36].net  RangeLqis  ETV
vector 263  DataCentricNet.host[37].net  neighbourLqis  ETV
vector 264  DataCentricNet.host[37].net  RangeLqis  ETV
vector 270  DataCentricNet.host[38].net  neighbourLqis  ETV
vector 271  DataCentricNet.host[38].net  RangeLqis  ETV
vector 277  DataCentricNet.host[39].net  neighbourLqis  ETV
vector 278  DataCentricNet.host[39].net  RangeLqis  ETV
vector 284  DataCentricNet.host[40].net  neighbourLqis  ETV
vector 285  DataCentricNet.host[40].net  RangeLqis  ETV
vector 291  DataCentricNet.host[41].net  neighbourLqis  ETV
vector 292  DataCentricNet.host[41].net  RangeLqis  ETV
vector 298  DataCentricNet.host[42].net  neighbourLqis  ETV
vector 299  DataCentricNet.host[42].net  RangeLqis  ETV
vector 305  DataCentricNet.host[43].net  neighbourLqis  ETV
vector 306  DataCentricNet.host[43].net  RangeLqis  ETV
vector 312  DataCentricNet.host[44].net  neighbourLqis  ETV
vector 313  DataCentricNet.host[44].net  RangeLqis  ETV
vector 319  DataCentricNet.host[45].net  neighbourLqis  ETV
vector 320  DataCentricNet.host[45].net  RangeLqis  ETV
vector 326  DataCentricNet.host[46].net  neighbourLqis  ETV
vector 327  DataCentricNet.host[46].net  RangeLqis  ETV
vector 333  DataCentricNet.host[47].net  neighbourLqis  ETV
vector 334  DataCentricNet.host[47].net  RangeLqis  ETV
vector 340  DataCentricNet.host[48].net  neighbourLqis  ETV
vector 341  DataCentricNet.host[48].net  RangeLqis  ETV
vector 347  DataCentricNet.host[49].net  neighbourLqis  ETV
vector 348  DataCentricNet.host[49].net  RangeLqis  ETV
vector 354  DataCentricNet.host[50].net  neighbourLqis  ETV
vector 355  DataCentricNet.host[50].net  RangeLqis  ETV
vector 361  DataCentricNet.host[51].net  neighbourLqis  ETV
vector 362  DataCentricNet.host[51].net  RangeLqis  ETV
vector 368  DataCentricNet.host[52].net  neighbourLqis  ETV
vector 369  DataCentricNet.host[52].net  RangeLqis  ETV
vector 375  DataCentricNet.host[53].net  neighbourLqis  ETV
vector 376  DataCentricNet.host[53].net  RangeLqis  ETV
vector 382  DataCentricNet.host[54].net  neighbourLqis  ETV
vector 383  DataCentricNet.host[54].net  RangeLqis  ETV
vector 389  DataCentricNet.host[55].net  neighbourLqis  ETV
vector 390  DataCentricNet.host[55].net  RangeLqis  ETV
vector 396  DataCentricNet.host[56].net  neighbourLqis  ETV
vector 397  DataCentricNet.host[56].net  RangeLqis  ETV
vector 403  DataCentricNet.host[57].net  neighbourLqis  ETV
vector 404  DataCentricNet.host[57].net  RangeLqis  ETV
vector 410  DataCentricNet.host[58].net  neighbourLqis  ETV
vector 411  DataCentricNet.host[58].net  RangeLqis  ETV
vector 417  DataCentricNet.host[59].net  neighbourLqis  ETV
vector 418  DataCentricNet.host[59].net  RangeLqis  ETV
vector 424  DataCentricNet.host[60].net  neighbourLqis  ETV
vector 425  DataCentricNet.host[60].net  RangeLqis  ETV
vector 431  DataCentricNet.host[61].net  neighbourLqis  ETV
vector 432  DataCentricNet.host[61].net  RangeLqis  ETV
vector 438  DataCentricNet.host[62].net  neighbourLqis  ETV
vector 439  DataCentricNet.host[62].net  RangeLqis  ETV
vector 445  DataCentricNet.host[63].net  neighbourLqis  ETV
vector 446  DataCentricNet.host[63].net  RangeLqis  ETV
vector 452  DataCentricNet.host[64].net  neighbourLqis  ETV
vector 453  DataCentricNet.host[64].net  RangeLqis  ETV
vector 459  DataCentricNet.host[65].net  neighbourLqis  ETV
vector 460  DataCentricNet.host[65].net  RangeLqis  ETV
vector 466  DataCentricNet.host[66].net  neighbourLqis  ETV
vector 467  DataCentricNet.host[66].net  RangeLqis  ETV
vector 473  DataCentricNet.host[67].net  neighbourLqis  ETV
vector 474  DataCentricNet.host[67].net  RangeLqis  ETV
vector 480  DataCentricNet.host[68].net  neighbourLqis  ETV
vector 481  DataCentricNet.host[68].net  RangeLqis  ETV
vector 487  DataCentricNet.host[69].net  neighbourLqis  ETV
vector 488  DataCentricNet.host[69].net  RangeLqis  ETV
vector 494  DataCentricNet.host[70].net  neighbourLqis  ETV
vector 495  DataCentricNet.host[70].net  RangeLqis  ETV
vector 501  DataCentricNet.host[71].net  neighbourLqis  ETV
vector 502  DataCentricNet.host[71].net  RangeLqis  ETV
vector 508  DataCentricNet.host[72].net  neighbourLqis  ETV
vector 509  DataCentricNet.host[72].net  RangeLqis  ETV
vector 515  DataCentricNet.host[73].net  neighbourLqis  ETV
vector 516  DataCentricNet.host[73].net  RangeLqis  ETV
vector 522  DataCentricNet.host[74].net  neighbourLqis  ETV
vector 523  DataCentricNet.host[74].net  RangeLqis  ETV
vector 529  DataCentricNet.host[75].net  neighbourLqis  ETV
vector 530  DataCentricNet.host[75].net  RangeLqis  ETV
vector 536  DataCentricNet.host[76].net  neighbourLqis  ETV
vector 537  DataCentricNet.host[76].net  RangeLqis  ETV
vector 543  DataCentricNet.host[77].net  neighbourLqis  ETV
vector 544  DataCentricNet.host[77].net  RangeLqis  ETV
vector 550  DataCentricNet.host[78].net  neighbourLqis  ETV
vector 551  DataCentricNet.host[78].net  RangeLqis  ETV
vector 557  DataCentricNet.host[79].net  neighbourLqis  ETV
vector 558  DataCentricNet.host[79].net  RangeLqis  ETV
vector 564  DataCentricNet.host[80].net  neighbourLqis  ETV
vector 565  DataCentricNet.host[80].net  RangeLqis  ETV
vector 571  DataCentricNet.host[81].net  neighbourLqis  ETV
vector 572  DataCentricNet.host[81].net  RangeLqis  ETV
vector 578  DataCentricNet.host[82].net  neighbourLqis  ETV
vector 579  DataCentricNet.host[82].net  RangeLqis  ETV
vector 585  DataCentricNet.host[83].net  neighbourLqis  ETV
vector 586  DataCentricNet.host[83].net  RangeLqis  ETV
vector 592  DataCentricNet.host[84].net  neighbourLqis  ETV
vector 593  DataCentricNet.host[84].net  RangeLqis  ETV
vector 599  DataCentricNet.host[85].net  neighbourLqis  ETV
vector 600  DataCentricNet.host[85].net  RangeLqis  ETV
vector 606  DataCentricNet.host[86].net  neighbourLqis  ETV
vector 607  DataCentricNet.host[86].net  RangeLqis  ETV
vector 613  DataCentricNet.host[87].net  neighbourLqis  ETV
vector 614  DataCentricNet.host[87].net  RangeLqis  ETV
vector 620  DataCentricNet.host[88].net  neighbourLqis  ETV
vector 621  DataCentricNet.host[88].net  RangeLqis  ETV
vector 627  DataCentricNet.host[89].net  neighbourLqis  ETV
vector 628  DataCentricNet.host[89].net  RangeLqis  ETV
vector 634  DataCentricNet.host[90].net  neighbourLqis  ETV
vector 635  DataCentricNet.host[90].net  RangeLqis  ETV
vector 641  DataCentricNet.host[91].net  neighbourLqis  ETV
vector 642  DataCentricNet.host[91].net  RangeLqis  ETV
vector 648  DataCentricNet.host[92].net  neighbourLqis  ETV
vector 649  DataCentricNet.host[92].net  RangeLqis  ETV
vector 655  DataCentricNet.host[93].net  neighbourLqis  ETV
vector 656  DataCentricNet.host[93].net  RangeLqis  ETV
vector 662  DataCentricNet.host[94].net  neighbourLqis  ETV
vector 663  DataCentricNet.host[94].net  RangeLqis  ETV
vector 669  DataCentricNet.host[95].net  neighbourLqis  ETV
vector 670  DataCentricNet.host[95].net  RangeLqis  ETV
vector 676  DataCentricNet.host[96].net  neighbourLqis  ETV
vector 677  DataCentricNet.host[96].net  RangeLqis  ETV
vector 683  DataCentricNet.host[97].net  neighbourLqis  ETV
vector 684  DataCentricNet.host[97].net  RangeLqis  ETV
vector 690  DataCentricNet.host[98].net  neighbourLqis  ETV
vector 691  DataCentricNet.host[98].net  RangeLqis  ETV
vector 697  DataCentricNet.host[99].net  neighbourLqis  ETV
vector 698  DataCentricNet.host[99].net  RangeLqis  ETV
4	223338	0	156
4	223338	1	151
4	223338	2	133
4	223338	3	141
4	223338	4	113
4	223338	5	123
4	223338	6	166
4	223338	7	69
4	223338	8	92
4	223338	9	146
5	223338	0	10
5	223338	0	20
5	223338	0	30
5	223338	0	40
5	223338	0	50
5	223338	0	60
5	223338	1	70
5	223338	1	80
5	223338	1	90
5	223338	2	100
5	223338	2	110
5	223338	3	120
5	223338	4	130
5	223338	5	140
5	223338	7	150
5	223338	9	160
5	223338	10	170
5	223338	10	180
5	223338	10	190
5	223338	10	200
5	223338	10	210
5	223338	10	220
5	223338	10	230
5	223338	10	240
5	223338	10	250
5	223338	10	260
6	24647	1.039674090273	1
6	25537	1.043442090273	2
6	26509	1.045930090273	3
6	26917	1.047002753551	4
6	27356	1.048109534636	5
6	29124	1.051741954698	6
6	31816	1.056077698112	7
6	32247	1.057125306648	8
6	34973	1.061627278009	9
6	36654	1.063973081031	10
6	37725	1.066445340242	11
6	38061	1.06765365547	12
6	39252	1.070151154412	13
6	39845	1.071190432334	14
6	40725	1.072309141213	15
6	43894	1.076795395525	16
6	44357	1.077948164971	17
6	49036	1.084837181267	18
6	50167	1.086892156827	19
6	50817	1.088117732436	20
6	51219	1.089160024921	21
6	51744	1.090131844559	22
6	53001	1.09260802492	23
6	54212	1.095004914078	24
6	55425	1.097444348276	25
6	56462	1.099845473265	26
6	57990	1.102073633315	27
6	60615	1.106684226915	28
6	60983	1.1077021719	29
6	62418	1.109697473975	30
6	63569	1.112500473111	31
6	64108	1.113703912512	32
6	64625	1.114749020141	33
6	69017	1.120633386444	34
6	69729	1.121802426034	35
6	70706	1.124451757429	36
6	71909	1.126742436577	37
6	72377	1.127773064045	38
6	72759	1.128891289245	39
6	73268	1.13051859264	40
6	73705	1.131668159017	41
6	74224	1.133327205672	42
6	74666	1.134380226915	43
6	75099	1.136106339522	44
6	75524	1.137178914097	45
6	76005	1.13835846551	46
6	77850	1.141919530047	47
6	79381	1.145446549663	48
6	79955	1.14664126294	49
6	80894	1.149183205671	50
6	81672	1.151150514983	51
6	83097	1.154100366283	52
6	85225	1.15756481572	53
6	89164	1.162422206634	54
6	89604	1.163441947521	55
6	90469	1.165886033339	56
6	91542	1.168167205671	57
6	92383	1.170122732591	58
6	92774	1.171480481935	59
6	93244	1.173205815231	60
6	93649	1.174196635995	61
6	94101	1.175158922408	62
6	95891	1.178755417971	63
6	96818	1.181143492462	64
6	97251	1.182423240218	65
6	98946	1.186911195316	66
6	99549	1.187878514983	67
6	100208	1.189266467918	68
6	100653	1.19032171143	69
6	101047	1.191646514983	70
6	101580	1.192826411811	71
6	102060	1.19410246551	72
6	102442	1.195079572924	73
6	103410	1.19858550557	74
6	104886	1.204090319879	75
6	105923	1.207491898296	76
6	106459	1.209423226959	77
6	106895	1.210451233768	78
6	108643	1.215261609852	79
6	109035	1.216487568103	80
6	109444	1.218434111937	81
6	109875	1.219791696507	82
6	110311	1.221272099849	83
6	111235	1.223419898296	84
6	112336	1.225737413171	85
6	113968	1.230674994402	86
6	115930	1.234116808772	87
6	117634	1.237610572383	88
6	118027	1.23872743977	89
6	118517	1.240232126551	90
6	118801	1.241195513941	91
6	119333	1.242163233768	92
6	121708	1.24854540805	93
6	122208	1.249752897288	94
6	122689	1.250731233768	95
6	123068	1.251728481934	96
6	123624	1.254165073213	97
6	124150	1.255245406823	98
6	124570	1.256207195316	99
6	126267	1.259683513941	100
6	127437	1.262316129639	101
6	128618	1.264704055415	102
6	130107	1.268215572924	103
6	131297	1.27123738813	104
6	132267	1.273696481933	105
6	132677	1.275064897288	106
6	133180	1.27611790131	107
6	133689	1.277201087837	108
6	134151	1.27909365547	109
6	134692	1.281159568103	110
6	136333	1.285213236298	111
6	136756	1.286739898295	112
6	137309	1.287767583412	113
6	137591	1.28894165547	114
6	138708	1.291669609852	115
6	139048	1.293029655469	116
6	139632	1.294219678171	117
6	142552	1.299030734273	118
6	142997	1.30021839413	119
6	143982	1.302313941577	120
6	144373	1.30334639413	121
6	146827	1.308747898295	122
6	147906	1.311500757278	123
6	148227	1.312497044465	124
6	149301	1.316590703545	125
6	150280	1.319207653232	126
6	151986	1.322876757278	127
6	152364	1.325113862141	128
6	152807	1.326082906954	129
6	153230	1.32719057642	130
6	153680	1.328244757278	131
6	154058	1.329585335725	132
6	154507	1.330626583189	133
6	154931	1.332052351832	134
6	155384	1.333505262872	135
6	155722	1.335114920858	136
6	156166	1.33607857642	137
6	156654	1.337504126549	138
6	157488	1.339371966479	139
6	157960	1.340606334042	140
6	160135	1.344008626152	141
6	163747	1.347428373517	142
6	170912	1.355993826306	143
6	173791	1.360589221948	144
6	175390	1.362999937683	145
6	175768	1.364107417385	146
6	176271	1.365499966479	147
6	178290	1.369490906953	148
6	178790	1.370740226915	149
6	179249	1.371916875458	150
6	180618	1.374570318212	151
6	180900	1.375653655467	152
6	181342	1.377261132977	153
6	181827	1.378605064044	154
6	182255	1.37995211942	155
6	182673	1.381183590364	156
6	183013	1.382306294607	157
6	183553	1.383864126547	158
6	183944	1.385101609852	159
6	184360	1.387188757278	160
6	184873	1.388635548306	161
6	186273	1.392773012947	162
6	186605	1.394215346266	163
6	187116	1.396476351832	164
6	187581	1.398602318212	165
6	187973	1.400116494461	166
6	188386	1.401444757278	167
6	188790	1.402412351832	168
6	189255	1.403380196898	169
6	191054	1.407201335725	170
6	191516	1.408435484658	171
6	192486	1.413388757278	172
6	192936	1.414876721582	173
6	193314	1.417802583188	174
6	193737	1.419084351831	175
6	194062	1.420949655466	176
6	194532	1.422345335725	177
6	196081	1.428007590363	178
6	196531	1.429805583741	179
6	197502	1.436740721582	180
6	197904	1.438301583741	181
6	199412	1.443519225823	182
6	200363	1.446268721582	183
6	201236	1.448608920123	184
6	201694	1.449988728169	185
6	202156	1.451386462127	186
6	202569	1.453164721582	187
6	202852	1.455903346266	188
6	203272	1.459991346266	189
6	203828	1.461802462127	190
6	204229	1.463561262871	191
6	204610	1.466778090271	192
6	205026	1.469906090271	193
6	205491	1.471898462127	194
6	206472	1.477079225822	195
6	206882	1.479180196897	196
6	207332	1.482467513941	197
6	207845	1.483698090271	198
6	208291	1.484929262871	199
6	209241	1.488377262871	200
6	209615	1.48963409027	201
6	210036	1.493065839528	202
6	210455	1.49621009027	203
6	210806	1.498632108436	204
6	211836	1.501585087836	205
6	212271	1.503426090269	206
6	212663	1.505353087836	207
6	213097	1.507194090269	208
6	213490	1.508801087836	209
6	213928	1.511282090269	210
6	214296	1.516145862139	211
6	214698	1.521348196897	212
6	215234	1.527896920123	213
6	215704	1.532304920123	214
6	216150	1.546326053458	215
6	216510	1.555520108436	216
6	216989	1.562651469486	217
6	217405	1.563713839528	218
6	217857	1.566543330153	219
6	218240	1.569009839528	220
6	218683	1.572447195173	221
6	219112	1.587874462127	222
6	219525	1.603162462127	223
6	219938	1.607250462127	224
11	223338	0	169
11	223338	1	161
11	223338	2	148
11	223338	3	136
11	223338	4	156
11	223338	5	169
11	223338	6	156
11	223338	7	120
11	223338	8	169
11	223338	9	161
12	223338	0	10
12	223338	0	20
12	223338	0	30
12	223338	0	40
12	223338	0	50
12	223338	0	60
12	223338	0	70
12	223338	0	80
12	223338	0	90
12	223338	0	100
12	223338	0	110
12	223338	1	120
12	223338	1	130
12	223338	2	140
12	223338	3	150
12	223338	5	160
12	223338	10	170
12	223338	10	180
12	223338	10	190
12	223338	10	200
12	223338	10	210
12	223338	10	220
12	223338	10	230
12	223338	10	240
12	223338	10	250
12	223338	10	260
13	24749	1.039674119456	1
13	25639	1.043442119456	2
13	26611	1.045930119456	3
13	27016	1.047002781909	4
13	27449	1.048109563081	5
13	29181	1.051741976187	6
13	31837	1.056077705926	7
13	32418	1.057125341064	8
13	36657	1.063973082279	9
13	37854	1.066445371615	10
13	38136	1.067653679686	11
13	39378	1.070151188481	12
13	39895	1.071190445859	13
13	43344	1.07554570651	14
13	43931	1.076795403576	15
13	44363	1.077948169257	16
13	47230	1.081204160071	17
13	47871	1.082349157639	18
13	48934	1.084837157639	19
13	50844	1.088117741568	20
13	51141	1.089159999992	21
13	52923	1.092607999991	22
13	54335	1.095004947849	23
13	55323	1.097444324648	24
13	57909	1.102073604875	25
13	58484	1.103265867791	26
13	60744	1.106684257907	27
13	61028	1.107702187311	28
13	63590	1.112500480925	29
13	64201	1.113703940957	30
13	64748	1.114749053912	31
13	69750	1.121802433848	32
13	70898	1.124451791884	33
13	71954	1.126742451988	34
13	72311	1.127773039905	35
13	72744	1.128891285866	36
13	73256	1.130518586762	37
13	73725	1.131668162533	38
13	74359	1.133327239913	39
13	74795	1.134380257907	40
13	75201	1.136106369122	41
13	75623	1.137178942455	42
13	75924	1.138358444467	43
13	76399	1.13949501387	44
13	77902	1.141919543572	45
13	78389	1.143247534676	46
13	78915	1.144471013869	47
13	80027	1.146641283622	48
13	81029	1.149183239912	49
13	81744	1.151150538283	50
13	89062	1.162422183006	51
13	89691	1.163441972924	52
13	90634	1.165886067073	53
13	91677	1.168167239912	54
13	91956	1.169143013868	55
13	92482	1.170122755098	56
13	92822	1.171480494438	57
13	93352	1.173205847548	58
13	93574	1.174196603611	59
13	94203	1.175158952008	60
13	95894	1.178755419008	61
13	96887	1.181143505254	62
13	97308	1.182423261707	63
13	98494	1.185606444467	64
13	99126	1.186911227513	65
13	100334	1.189266501987	66
13	100620	1.190321702612	67
13	101115	1.191646538283	68
13	101643	1.192826432952	69
13	101979	1.194102444467	70
13	102406	1.195079558307	71
13	103431	1.198585511432	72
13	103845	1.199828603611	73
13	104429	1.202087683513	74
13	104919	1.204090332613	75
13	106597	1.209423261202	76
13	106835	1.210451218886	77
13	108131	1.214103683513	78
13	108772	1.215261641225	79
13	108954	1.216487534676	80
13	109492	1.218434127306	81
13	109842	1.219791683513	82
13	110452	1.221272131937	83
13	111289	1.223419913838	84
13	112408	1.225737433853	85
13	114665	1.231783214926	86
13	115409	1.23298538839	87
13	116035	1.234116835175	88
13	117769	1.237610605579	89
13	118096	1.238727452562	90
13	118553	1.240232136445	91
13	118930	1.241195544787	92
13	119273	1.242163218886	93
13	121779	1.248545424369	94
13	122253	1.249752912699	95
13	122629	1.250731218886	96
13	123116	1.251728494437	97
13	123553	1.254165051351	98
13	124156	1.255245409889	99
13	125687	1.258573051351	100
13	127506	1.262316145644	101
13	128645	1.264704064547	102
13	130071	1.268215558307	103
13	131363	1.271237400724	104
13	132315	1.273696494436	105
13	132722	1.275064912699	106
13	133842	1.277201122098	107
13	134611	1.281159534676	108
13	136405	1.285213259598	109
13	136810	1.286739913837	110
13	137396	1.287767608723	111
13	137666	1.288941679686	112
13	138837	1.291669641225	113
13	139123	1.293029679685	114
13	142573	1.299030737789	115
13	143180	1.300218427397	116
13	144081	1.302313969824	117
13	144556	1.303346427397	118
13	146406	1.307563918501	119
13	146881	1.308747913837	120
13	147996	1.311500778215	121
13	148233	1.312497048751	122
13	149214	1.316590669976	123
13	149785	1.317659918501	124
13	150199	1.319207631011	125
13	152076	1.322876778215	126