version 2
run General-0-20120913-01:16:20-2748
attr configname General
attr datetime 20120913-01:16:20
attr experiment General
attr inifile omnetpp.ini
attr iterationvars ""
attr iterationvars2 $repetition=0
attr measurement ""
attr network DataCentricNet
attr processid 2748
attr repetition 0
attr replication #0
attr resultdir results
attr runnumber 0
attr seedset 0

vector 1252  DataCentricNet.dataCentricNetworkMan  helloPacketFrequency  ETV
vector 1257  DataCentricNet.dataCentricNetworkMan  reinforcementPacketFrequency  ETV
vector 1259  DataCentricNet.dataCentricNetworkMan  breakagePacketFrequency  ETV
vector 1258  DataCentricNet.dataCentricNetworkMan  dataPacketE2EDelay  ETV
1252	5060	1.005	125
1252	15489	1.01	0
1252	25528	1.02048292273	0
1252	28282	1.02548292273	0
1252	30567	1.03048292273	0
1252	33378	1.03548292273	0
1252	35333	1.04048292273	0
1252	37298	1.04548292273	0
1252	39627	1.05048292273	0
1252	41909	1.05548292273	0
1252	44197	1.06048292273	0
1252	46570	1.06548292273	0
1252	48375	1.07048292273	0
1252	50609	1.07548292273	0
1252	52970	1.08048292273	0
1252	55399	1.08548292273	0
1252	58383	1.09048292273	0
1252	64060	1.10572229638	0
1252	65811	1.11072229638	0
1252	67178	1.11572229638	0
1252	71871	1.134536664637	0
1252	72870	1.139536664637	0
1252	76103	1.152849548037	0
1252	78857	1.157849548037	0
1252	81002	1.162849548037	0
1252	83366	1.169127258266	0
1252	85878	1.174127258266	0
1252	98057	1.210193810252	0
1252	100743	1.215193810252	0
1252	108042	1.238529589836	0
1252	110315	1.243529589836	0
1252	112411	1.248529589836	0
1252	114452	1.253529589836	0
1252	117121	1.260719432748	0
1252	118885	1.265719432748	0
1252	122304	1.27715338785	0
1252	124292	1.28215338785	0
1252	131192	1.301485590637	0
1252	133398	1.306485590637	0
1252	156269	1.386808663014	0
1252	158321	1.391808663014	0
1252	168382	3.005	0
1252	170612	3.020716944808	0
1252	171590	13.005	0
1252	173441	13.010051485585	0
1252	175143	13.022123512314	0
1252	175536	23.005	0
1252	177769	23.013071929524	0
1252	179721	33.005	0
1252	182870	33.020525970043	0
1257	5060	1.005	0
1257	15489	1.01	0
1257	25528	1.02048292273	0
1257	28282	1.02548292273	0
1257	30567	1.03048292273	0
1257	33378	1.03548292273	0
1257	35333	1.04048292273	0
1257	37298	1.04548292273	0
1257	39627	1.05048292273	0
1257	41909	1.05548292273	0
1257	44197	1.06048292273	0
1257	46570	1.06548292273	0
1257	48375	1.07048292273	0
1257	50609	1.07548292273	0
1257	52970	1.08048292273	0
1257	55399	1.08548292273	0
1257	58383	1.09048292273	0
1257	64060	1.10572229638	0
1257	65811	1.11072229638	0
1257	67178	1.11572229638	0
1257	71871	1.134536664637	0
1257	72870	1.139536664637	0
1257	76103	1.152849548037	0
1257	78857	1.157849548037	0
1257	81002	1.162849548037	0
1257	83366	1.169127258266	0
1257	85878	1.174127258266	0
1257	98057	1.210193810252	0
1257	100743	1.215193810252	0
1257	108042	1.238529589836	0
1257	110315	1.243529589836	1
1257	112411	1.248529589836	2
1257	114452	1.253529589836	0
1257	117121	1.260719432748	1
1257	118885	1.265719432748	0
1257	122304	1.27715338785	0
1257	124292	1.28215338785	0
1257	131192	1.301485590637	0
1257	133398	1.306485590637	0
1257	156269	1.386808663014	1
1257	158321	1.391808663014	0
1257	168382	3.005	0
1257	170612	3.020716944808	0
1257	171590	13.005	0
1257	173441	13.010051485585	0
1257	175143	13.022123512314	0
1257	175536	23.005	0
1257	177769	23.013071929524	0
1257	179721	33.005	0
1257	182870	33.020525970043	0
1258	168545	3.007956934775	0.007956934775
1258	169287	3.010931034229	0.010931034229
1258	170760	3.022446677293	0.022446677293
1258	172354	13.008083495619	0.008083495619
1258	173096	13.009762991425	0.009762991425
1258	174555	13.020867577034	0.020867577034
1258	175563	23.00503991949	0.00503991949
1258	177788	23.013508980472	0.013508980472
1258	178497	23.017415599449	0.017415599449
1258	180113	33.007813953349	0.007813953349
1258	182375	33.020258572452	0.020258572452
1258	183236	33.024662137725	0.024662137725
1259	5060	1.005	0
1259	15489	1.01	0
1259	25528	1.02048292273	0
1259	28282	1.02548292273	0
1259	30567	1.03048292273	0
1259	33378	1.03548292273	0
1259	35333	1.04048292273	0
1259	37298	1.04548292273	0
1259	39627	1.05048292273	0
1259	41909	1.05548292273	0
1259	44197	1.06048292273	0
1259	46570	1.06548292273	0
1259	48375	1.07048292273	0
1259	50609	1.07548292273	0
1259	52970	1.08048292273	0
1259	55399	1.08548292273	0
1259	58383	1.09048292273	0
1259	64060	1.10572229638	0
1259	65811	1.11072229638	0
1259	67178	1.11572229638	0
1259	71871	1.134536664637	0
1259	72870	1.139536664637	0
1259	76103	1.152849548037	0
1259	78857	1.157849548037	0
1259	81002	1.162849548037	0
1259	83366	1.169127258266	0
1259	85878	1.174127258266	0
1259	98057	1.210193810252	0
1259	100743	1.215193810252	0
1259	108042	1.238529589836	0
1259	110315	1.243529589836	0
1259	112411	1.248529589836	0
1259	114452	1.253529589836	0
1259	117121	1.260719432748	0
1259	118885	1.265719432748	0
1259	122304	1.27715338785	0
1259	124292	1.28215338785	0
1259	131192	1.301485590637	0
1259	133398	1.306485590637	0
1259	156269	1.386808663014	0
1259	158321	1.391808663014	0
1259	168382	3.005	0
1259	170612	3.020716944808	0
1259	171590	13.005	0
1259	173441	13.010051485585	0
1259	175143	13.022123512314	0
1259	175536	23.005	0
1259	177769	23.013071929524	0
1259	179721	33.005	0
1259	182870	33.020525970043	0
