version 2
run General-0-20120822-12:25:13-3212
attr configname General
attr datetime 20120822-12:25:13
attr experiment General
attr inifile omnetpp.ini
attr iterationvars ""
attr iterationvars2 $repetition=0
attr measurement ""
attr network DataCentricNet
attr processid 3212
attr repetition 0
attr replication #0
attr resultdir results
attr runnumber 0
attr seedset 0

vector 1257  DataCentricNet.dataCentricNetworkMan  reinforcementPacketFrequency  ETV
vector 1259  DataCentricNet.dataCentricNetworkMan  breakagePacketFrequency  ETV
vector 58  DataCentricNet.host[5].net  InterestInterDepartureTimesVector  ETV
vector 158  DataCentricNet.host[15].net  InterestInterDepartureTimesVector  ETV
vector 498  DataCentricNet.host[49].net  InterestInterDepartureTimesVector  ETV
vector 28  DataCentricNet.host[2].net  InterestInterDepartureTimesVector  ETV
vector 1248  DataCentricNet.host[124].net  InterestInterDepartureTimesVector  ETV
vector 568  DataCentricNet.host[56].net  InterestInterDepartureTimesVector  ETV
vector 558  DataCentricNet.host[55].net  InterestInterDepartureTimesVector  ETV
vector 368  DataCentricNet.host[36].net  InterestInterDepartureTimesVector  ETV
vector 118  DataCentricNet.host[11].net  InterestInterDepartureTimesVector  ETV
vector 168  DataCentricNet.host[16].net  InterestInterDepartureTimesVector  ETV
vector 818  DataCentricNet.host[81].net  InterestInterDepartureTimesVector  ETV
vector 548  DataCentricNet.host[54].net  InterestInterDepartureTimesVector  ETV
vector 428  DataCentricNet.host[42].net  InterestInterDepartureTimesVector  ETV
vector 658  DataCentricNet.host[65].net  InterestInterDepartureTimesVector  ETV
vector 108  DataCentricNet.host[10].net  InterestInterDepartureTimesVector  ETV
vector 258  DataCentricNet.host[25].net  InterestInterDepartureTimesVector  ETV
vector 938  DataCentricNet.host[93].net  InterestInterDepartureTimesVector  ETV
vector 728  DataCentricNet.host[72].net  InterestInterDepartureTimesVector  ETV
vector 998  DataCentricNet.host[99].net  InterestInterDepartureTimesVector  ETV
vector 918  DataCentricNet.host[91].net  InterestInterDepartureTimesVector  ETV
vector 1098  DataCentricNet.host[109].net  InterestInterDepartureTimesVector  ETV
vector 1008  DataCentricNet.host[100].net  InterestInterDepartureTimesVector  ETV
vector 588  DataCentricNet.host[58].net  InterestInterDepartureTimesVector  ETV
vector 598  DataCentricNet.host[59].net  InterestInterDepartureTimesVector  ETV
vector 1228  DataCentricNet.host[122].net  InterestInterDepartureTimesVector  ETV
vector 1068  DataCentricNet.host[106].net  InterestInterDepartureTimesVector  ETV
vector 468  DataCentricNet.host[46].net  InterestInterDepartureTimesVector  ETV
vector 418  DataCentricNet.host[41].net  InterestInterDepartureTimesVector  ETV
vector 38  DataCentricNet.host[3].net  InterestInterDepartureTimesVector  ETV
vector 838  DataCentricNet.host[83].net  InterestInterDepartureTimesVector  ETV
vector 858  DataCentricNet.host[85].net  InterestInterDepartureTimesVector  ETV
vector 808  DataCentricNet.host[80].net  InterestInterDepartureTimesVector  ETV
vector 1128  DataCentricNet.host[112].net  InterestInterDepartureTimesVector  ETV
vector 148  DataCentricNet.host[14].net  InterestInterDepartureTimesVector  ETV
vector 628  DataCentricNet.host[62].net  InterestInterDepartureTimesVector  ETV
vector 458  DataCentricNet.host[45].net  InterestInterDepartureTimesVector  ETV
vector 778  DataCentricNet.host[77].net  InterestInterDepartureTimesVector  ETV
vector 8  DataCentricNet.host[0].net  InterestInterDepartureTimesVector  ETV
vector 1038  DataCentricNet.host[103].net  InterestInterDepartureTimesVector  ETV
vector 908  DataCentricNet.host[90].net  InterestInterDepartureTimesVector  ETV
vector 578  DataCentricNet.host[57].net  InterestInterDepartureTimesVector  ETV
vector 18  DataCentricNet.host[1].net  InterestInterDepartureTimesVector  ETV
vector 188  DataCentricNet.host[18].net  InterestInterDepartureTimesVector  ETV
vector 1138  DataCentricNet.host[113].net  InterestInterDepartureTimesVector  ETV
vector 748  DataCentricNet.host[74].net  InterestInterDepartureTimesVector  ETV
vector 968  DataCentricNet.host[96].net  InterestInterDepartureTimesVector  ETV
vector 798  DataCentricNet.host[79].net  InterestInterDepartureTimesVector  ETV
vector 138  DataCentricNet.host[13].net  InterestInterDepartureTimesVector  ETV
vector 68  DataCentricNet.host[6].net  InterestInterDepartureTimesVector  ETV
vector 648  DataCentricNet.host[64].net  InterestInterDepartureTimesVector  ETV
vector 298  DataCentricNet.host[29].net  InterestInterDepartureTimesVector  ETV
vector 1188  DataCentricNet.host[118].net  InterestInterDepartureTimesVector  ETV
vector 78  DataCentricNet.host[7].net  InterestInterDepartureTimesVector  ETV
vector 718  DataCentricNet.host[71].net  InterestInterDepartureTimesVector  ETV
vector 338  DataCentricNet.host[33].net  InterestInterDepartureTimesVector  ETV
vector 378  DataCentricNet.host[37].net  InterestInterDepartureTimesVector  ETV
vector 1078  DataCentricNet.host[107].net  InterestInterDepartureTimesVector  ETV
vector 278  DataCentricNet.host[27].net  InterestInterDepartureTimesVector  ETV
vector 958  DataCentricNet.host[95].net  InterestInterDepartureTimesVector  ETV
vector 738  DataCentricNet.host[73].net  InterestInterDepartureTimesVector  ETV
vector 268  DataCentricNet.host[26].net  InterestInterDepartureTimesVector  ETV
vector 528  DataCentricNet.host[52].net  InterestInterDepartureTimesVector  ETV
vector 218  DataCentricNet.host[21].net  InterestInterDepartureTimesVector  ETV
vector 708  DataCentricNet.host[70].net  InterestInterDepartureTimesVector  ETV
vector 878  DataCentricNet.host[87].net  InterestInterDepartureTimesVector  ETV
vector 678  DataCentricNet.host[67].net  InterestInterDepartureTimesVector  ETV
vector 248  DataCentricNet.host[24].net  InterestInterDepartureTimesVector  ETV
vector 618  DataCentricNet.host[61].net  InterestInterDepartureTimesVector  ETV
vector 1088  DataCentricNet.host[108].net  InterestInterDepartureTimesVector  ETV
vector 358  DataCentricNet.host[35].net  InterestInterDepartureTimesVector  ETV
vector 688  DataCentricNet.host[68].net  InterestInterDepartureTimesVector  ETV
vector 1198  DataCentricNet.host[119].net  InterestInterDepartureTimesVector  ETV
vector 178  DataCentricNet.host[17].net  InterestInterDepartureTimesVector  ETV
vector 488  DataCentricNet.host[48].net  InterestInterDepartureTimesVector  ETV
vector 98  DataCentricNet.host[9].net  InterestInterDepartureTimesVector  ETV
vector 518  DataCentricNet.host[51].net  InterestInterDepartureTimesVector  ETV
vector 308  DataCentricNet.host[30].net  InterestInterDepartureTimesVector  ETV
vector 288  DataCentricNet.host[28].net  InterestInterDepartureTimesVector  ETV
vector 318  DataCentricNet.host[31].net  InterestInterDepartureTimesVector  ETV
vector 448  DataCentricNet.host[44].net  InterestInterDepartureTimesVector  ETV
vector 948  DataCentricNet.host[94].net  InterestInterDepartureTimesVector  ETV
vector 208  DataCentricNet.host[20].net  InterestInterDepartureTimesVector  ETV
vector 638  DataCentricNet.host[63].net  InterestInterDepartureTimesVector  ETV
vector 1118  DataCentricNet.host[111].net  InterestInterDepartureTimesVector  ETV
vector 788  DataCentricNet.host[78].net  InterestInterDepartureTimesVector  ETV
vector 88  DataCentricNet.host[8].net  InterestInterDepartureTimesVector  ETV
vector 1178  DataCentricNet.host[117].net  InterestInterDepartureTimesVector  ETV
vector 238  DataCentricNet.host[23].net  InterestInterDepartureTimesVector  ETV
vector 328  DataCentricNet.host[32].net  InterestInterDepartureTimesVector  ETV
vector 1058  DataCentricNet.host[105].net  InterestInterDepartureTimesVector  ETV
vector 408  DataCentricNet.host[40].net  InterestInterDepartureTimesVector  ETV
vector 388  DataCentricNet.host[38].net  InterestInterDepartureTimesVector  ETV
vector 868  DataCentricNet.host[86].net  InterestInterDepartureTimesVector  ETV
vector 198  DataCentricNet.host[19].net  InterestInterDepartureTimesVector  ETV
vector 848  DataCentricNet.host[84].net  InterestInterDepartureTimesVector  ETV
vector 508  DataCentricNet.host[50].net  InterestInterDepartureTimesVector  ETV
vector 1148  DataCentricNet.host[114].net  InterestInterDepartureTimesVector  ETV
vector 48  DataCentricNet.host[4].net  InterestInterDepartureTimesVector  ETV
vector 398  DataCentricNet.host[39].net  InterestInterDepartureTimesVector  ETV
vector 1238  DataCentricNet.host[123].net  InterestInterDepartureTimesVector  ETV
vector 898  DataCentricNet.host[89].net  InterestInterDepartureTimesVector  ETV
vector 1218  DataCentricNet.host[121].net  InterestInterDepartureTimesVector  ETV
vector 1208  DataCentricNet.host[120].net  InterestInterDepartureTimesVector  ETV
vector 348  DataCentricNet.host[34].net  InterestInterDepartureTimesVector  ETV
vector 1168  DataCentricNet.host[116].net  InterestInterDepartureTimesVector  ETV
vector 478  DataCentricNet.host[47].net  InterestInterDepartureTimesVector  ETV
vector 828  DataCentricNet.host[82].net  InterestInterDepartureTimesVector  ETV
vector 768  DataCentricNet.host[76].net  InterestInterDepartureTimesVector  ETV
vector 1048  DataCentricNet.host[104].net  InterestInterDepartureTimesVector  ETV
vector 928  DataCentricNet.host[92].net  InterestInterDepartureTimesVector  ETV
vector 438  DataCentricNet.host[43].net  InterestInterDepartureTimesVector  ETV
vector 988  DataCentricNet.host[98].net  InterestInterDepartureTimesVector  ETV
vector 538  DataCentricNet.host[53].net  InterestInterDepartureTimesVector  ETV
vector 698  DataCentricNet.host[69].net  InterestInterDepartureTimesVector  ETV
vector 758  DataCentricNet.host[75].net  InterestInterDepartureTimesVector  ETV
vector 1108  DataCentricNet.host[110].net  InterestInterDepartureTimesVector  ETV
vector 1028  DataCentricNet.host[102].net  InterestInterDepartureTimesVector  ETV
vector 228  DataCentricNet.host[22].net  InterestInterDepartureTimesVector  ETV
vector 128  DataCentricNet.host[12].net  InterestInterDepartureTimesVector  ETV
vector 978  DataCentricNet.host[97].net  InterestInterDepartureTimesVector  ETV
vector 1018  DataCentricNet.host[101].net  InterestInterDepartureTimesVector  ETV
vector 888  DataCentricNet.host[88].net  InterestInterDepartureTimesVector  ETV
vector 668  DataCentricNet.host[66].net  InterestInterDepartureTimesVector  ETV
vector 1158  DataCentricNet.host[115].net  InterestInterDepartureTimesVector  ETV
vector 608  DataCentricNet.host[60].net  InterestInterDepartureTimesVector  ETV
vector 1260  DataCentricNet.dataCentricNetworkMan  modulesDownVector  ETV
vector 529  DataCentricNet.host[52].net  StabilityVector  ETV
vector 1258  DataCentricNet.dataCentricNetworkMan  dataPacketE2EDelay  ETV
8	40146	1.037508249219	0.001102345704
8	75421	1.075940541137	0.038432291918
8	120800	1.140356036905	0.064415495768
8	170214	1.218742466588	0.078386429683
8	357567	1.218842466588	0
8	357567	3.00277358667	0
18	40221	1.03750825891	0.001102355303
18	75451	1.075940547366	0.038432288456
18	120848	1.140356048661	0.064415501295
18	141728	1.168659335976	0.028303287315
18	170187	1.218742463175	0.050083127199
18	357729	1.218842463175	0
18	357729	3.002773604036	0
28	28982	1.022798613317	0.000791607201
28	29512	1.023573817095	0.000775203778
28	35342	1.031639892554	0.008066075459
28	75307	1.075940514037	0.044300621483
28	120875	1.140356058626	0.064415544589
28	170388	1.218742491925	0.078386433299
28	357696	1.218842491925	0
28	357696	3.002773599787	0
38	33518	1.029594645571	0.001156102491
38	35162	1.031639871876	0.002045226305
38	40140	1.03750824834	0.005868376464
38	75379	1.07594053338	0.03843228504
38	120824	1.140356041573	0.064415508193
38	170265	1.218742473579	0.078386432006
38	357570	1.218842473579	0
38	357570	3.002773587068	0
48	71650	1.071433973253	0.025825754958
48	75574	1.075940571106	0.004506597853
48	91706	1.095344281419	0.019403710313
48	108683	1.119914145565	0.024569864146
48	120653	1.14035601248	0.020441866915
48	170175	1.218742460926	0.078386448446
48	357603	1.218842460926	0
48	357603	3.00277359131	0
58	21990	1.014669812123	0.014669812123
58	27022	1.019672270407	0.005002458284
58	27696	1.020517168678	0.000844898271
58	29192	1.022798640884	0.002281472206
58	29473	1.023573812659	0.000775171775
58	35462	1.031639918086	0.008066105427
58	40323	1.037508268717	0.005868350631
58	75376	1.075940533175	0.038432264458
58	120917	1.140356066766	0.064415533591
58	170481	1.218742518001	0.078386451235
58	357783	1.218842518001	0
58	357783	3.002773609414	0
68	40257	1.037508262174	0.001102343222
68	75496	1.075940553699	0.038432291525
68	83463	1.086151111643	0.010210557944
68	120713	1.140356024002	0.054204912359
68	170217	1.218742466641	0.078386442639
68	357537	1.218842466641	0
68	357537	3.002773581487	0
78	40272	1.037508262802	0.001102360257
78	75460	1.075940548696	0.038432285894
78	120809	1.140356038844	0.064415490148
78	170178	1.218742461283	0.078386422439
78	357636	1.218842461283	0
78	357636	3.002773595072	0
88	59378	1.058132024006	0.021726103812
88	75535	1.075940562321	0.017808538315
88	91691	1.095344279206	0.019403716885
88	108644	1.119914142091	0.024569862885
88	120710	1.140356023842	0.020441881751
88	131297	1.152721661746	0.012365637904
88	170133	1.218742451704	0.066020789958
88	357609	1.218842451704	0
88	357609	3.002773591918	0
98	57424	1.055874488234	0.003341394364
98	75646	1.075940592217	0.020066103983
98	120671	1.140356016272	0.064415424055
98	170268	1.218742473748	0.078386457476
98	357813	1.218842473748	0
98	357813	3.002773613342	0
108	29099	1.022798627447	0.000791623545
108	29443	1.023573807129	0.000775179682
108	35387	1.031639898126	0.008066090997
108	75442	1.075940544746	0.04430064662
108	120794	1.140356035302	0.064415490556
108	170427	1.218742499974	0.078386464672
108	357531	1.218842499974	0
108	357531	3.002773580326	0
118	29042	1.022798621065	0.000791616357
118	29449	1.023573807832	0.000775186767
118	35393	1.031639898487	0.008066090655
118	75355	1.075940530695	0.044300632208
118	120869	1.140356058282	0.064415527587
118	170397	1.218742492322	0.07838643404
118	357726	1.218842492322	0
118	357726	3.002773603489	0
128	75619	1.075940587248	0.023407496684
128	120689	1.140356019631	0.064415432383
128	160885	1.202639509466	0.062283489835
128	170169	1.21874246028	0.016102950814
128	272243	1.393295770751	0.174553310471
128	357795	1.393395770751	0
128	357795	3.002773611407	0
138	40254	1.03750826166	0.003549427538
138	65461	1.06435320266	0.026844941
138	75334	1.07594052535	0.01158732269
138	120947	1.140356078792	0.064415553442
138	170439	1.218742502367	0.078386423575
138	357843	1.218842502367	0
138	357843	3.002773622194	0
148	35291	1.031639887791	0.003201349177
148	75343	1.075940526156	0.044300638365
148	120890	1.140356060841	0.064415534685
148	170343	1.218742485154	0.078386424313
148	357750	1.218842485154	0
148	357750	3.00277360605	0
158	28922	1.022798608483	0.000791598895
158	29470	1.023573812645	0.000775204162
158	35282	1.031639887355	0.00806607471
158	75328	1.075940524439	0.044300637084
158	120854	1.140356053139	0.0644155287
158	170331	1.218742484122	0.078386430983
158	357654	1.218842484122	0
158	357654	3.002773596651	0
168	29066	1.022798624369	0.000791625662
168	35390	1.03163989834	0.008841273971
168	75418	1.075940540173	0.044300641833
168	120830	1.140356043883	0.06441550371
168	170415	1.218742495275	0.078386451392
168	357597	1.218842495275	0
168	357597	3.002773590202	0
178	57416	1.055874485934	0.003341401377
178	75610	1.075940583347	0.020066097413
178	120611	1.140356003855	0.064415420508
178	160822	1.202639497988	0.062283494133
178	170211	1.218742466477	0.016102968489
178	357690	1.218842466477	0
178	357690	3.002773599507	0
188	40224	1.03750825916	0.001102353263
188	75397	1.075940536535	0.038432277375
188	120896	1.140356062482	0.064415525947
188	143744	1.173055425743	0.032699363261
188	170322	1.218742482103	0.04568705636
188	357798	1.218842482103	0
188	357798	3.002773611423	0
198	71557	1.071433960778	0.027988798566
198	75544	1.075940563082	0.004506602304
198	83469	1.086151112279	0.010210549197
198	120659	1.140356013009	0.05420490073
198	170340	1.21874248513	0.078386472121
198	357513	1.21884248513	0
198	357513	3.002773576873	0
208	58276	1.05726559901	0.004732501862
208	75607	1.075940582451	0.018674983441
208	91781	1.095344289692	0.019403707241
208	120605	1.140355998635	0.045011708943
208	170286	1.218742476192	0.078386477557
208	357633	1.218842476192	0
208	357633	3.002773595044	0
218	40329	1.037508269019	0.001102358325
218	75487	1.075940553176	0.038432284157
218	120746	1.14035602927	0.064415476094
218	170202	1.218742464318	0.078386435048
218	357573	1.218842464318	0
218	357573	3.002773587977	0
228	75613	1.075940583791	0.023407494161
228	120608	1.140356000721	0.06441541693
228	160882	1.202639509038	0.062283508317
228	170298	1.218742478511	0.016102969473
228	357660	1.218842478511	0
228	357660	3.002773597494	0
238	65449	1.064353201899	0.026844944236
238	74634	1.074967808589	0.01061460669
238	75406	1.07594053807	0.000972729481
238	120776	1.140356032524	0.064415494454
238	170349	1.21874248537	0.078386452846
238	357495	1.21884248537	0
238	357495	3.002773572148	0
248	54007	1.052533077798	0.006924853079
248	57410	1.05587448494	0.003341407142
248	75592	1.075940576052	0.020066091112
248	91784	1.095344289772	0.01940371372
248	120641	1.140356010153	0.045011720381
248	170166	1.218742458465	0.078386448312
248	357642	1.218842458465	0
248	357642	3.002773595565	0
258	29108	1.022798628437	0.000791626783
258	29485	1.023573815043	0.000775186606
258	35438	1.031639907008	0.008066091965
258	75337	1.075940525844	0.044300618836
258	120926	1.14035606851	0.064415542666
258	170433	1.218742501772	0.078386433262
258	357804	1.218842501772	0
258	357804	3.0027736118	0
268	40308	1.037508266674	0.001102356758
268	75481	1.075940553121	0.038432286447
268	120725	1.140356026813	0.064415473692
268	170172	1.218742460329	0.078386433516
268	357552	1.218842460329	0
268	357552	3.002773585421	0
278	40293	1.037508266002	0.001102350754
278	75508	1.075940558149	0.038432292147
278	120743	1.140356028241	0.064415470092
278	170124	1.21874245096	0.078386422719
278	357615	1.21884245096	0
278	357615	3.00277359219	0
288	57456	1.055874496614	0.003341405191
288	75631	1.075940587934	0.02006609132
288	120635	1.140356007503	0.064415419569
288	135825	1.15880757882	0.018451571317
288	160918	1.202639513278	0.043831934458
288	170295	1.218742477757	0.016102964479
288	357738	1.218842477757	0
288	357738	3.002773604962	0
298	40266	1.037508262371	0.001102357062
298	75445	1.075940544759	0.038432282388
298	120866	1.140356056905	0.064415512146
298	141722	1.168659335079	0.028303278174
298	170250	1.218742473117	0.050083138038
298	357786	1.218842473117	0
298	357786	3.002773610076	0
308	57439	1.055874492115	0.003341409498
308	75598	1.075940580422	0.020066088307
308	120638	1.140356007977	0.064415427555
308	160858	1.202639505631	0.062283497654
308	170229	1.218742469708	0.016102964077
308	273748	1.396417808135	0.177675338427
308	357678	1.396517808135	0
308	357678	3.002773598228	0
318	57459	1.055874497092	0.003341401809
318	75616	1.075940586684	0.020066089592
318	120246	1.139596715952	0.063656129268
318	120602	1.140355997079	0.000759281127
318	170274	1.218742474366	0.078386477287
318	357693	1.218842474366	0
318	357693	3.002773599535	0
328	65467	1.064353204422	0.026844949703
328	74616	1.074967803944	0.010614599522
328	75409	1.075940539359	0.000972735415
328	120761	1.140356031806	0.064415492447
328	170313	1.218742481596	0.07838644979
328	357498	1.218842481596	0
328	357498	3.002773573457	0
338	40278	1.037508262995	0.001102342678
338	75436	1.075940542874	0.038432279879
338	83451	1.086151109779	0.010210566905
338	120740	1.140356028026	0.054204918247
338	170346	1.218742485207	0.078386457181
338	357480	1.218842485207	0
338	357480	3.002773567828	0
348	75433	1.075940542763	0.038432293735
348	83433	1.08615110697	0.010210564207
348	120821	1.140356041352	0.054204934382
348	170253	1.218742473201	0.078386431849
348	357621	1.218842473201	0
348	357621	3.002773592452	0
358	57404	1.055874483361	0.00334138665
358	75649	1.075940592459	0.020066109098
358	120728	1.140356026864	0.064415434405
358	121611	1.141430174502	0.001074147638
358	149332	1.181981570202	0.0405513957
358	170220	1.218742468607	0.036760898405
358	251667	1.354309570202	0.135567101595
358	357837	1.354409570202	0
358	357837	3.002773619175	0
368	29024	1.022798618072	0.000791612294
368	29428	1.023573804224	0.000775186152
368	30962	1.026045484093	0.002471679869
368	33584	1.029594656973	0.00354917288
368	35297	1.031639889372	0.002045232399
368	75415	1.075940540142	0.04430065077
368	120782	1.140356033523	0.064415493381
368	170373	1.218742491187	0.078386457664
368	357501	1.218842491187	0
368	357501	3.002773574847	0
378	40281	1.037508264593	0.001102358156
378	75448	1.075940546136	0.038432281543
378	120863	1.140356056528	0.064415510392
378	141725	1.168659335921	0.028303279393
378	170259	1.218742473389	0.050083137468
378	357792	1.218842473389	0
378	357792	3.002773610342	0
388	71529	1.071433956739	0.027988796986
388	75520	1.075940559201	0.004506602462
388	83484	1.086151113615	0.010210554414
388	120656	1.140356012924	0.054204899309
388	170289	1.218742476196	0.078386463272
388	357492	1.218842476196	0
388	357492	3.002773571971	0
398	71669	1.071433975498	0.025825752892
398	75583	1.075940573835	0.004506598337
398	91739	1.095344283982	0.019403710147
398	108710	1.11991414781	0.024569863828
398	120623	1.140356005381	0.020441857571
398	170184	1.218742463103	0.078386457722
398	357588	1.218842463103	0
398	357588	3.002773589677	0
408	66083	1.0655359226	0.0220907498
408	75556	1.075940568142	0.010404645542
408	91694	1.095344279834	0.019403711692
408	108611	1.119914139108	0.024569859274
408	120614	1.140356003879	0.020441864771
408	170355	1.218742487244	0.078386483365
408	174571	1.223690367012	0.004947879768
408	357504	1.223790367012	0
408	357504	3.002773575275	0
418	33515	1.02959464556	0.001156101589
418	35183	1.031639872912	0.002045227352
418	40167	1.037508250451	0.005868377539
418	75367	1.075940532927	0.038432282476
418	120827	1.140356043823	0.064415510896
418	170277	1.218742474918	0.078386431095
418	357591	1.218842474918	0
418	357591	3.002773589751	0
428	29081	1.022798626201	0.000791635536
428	29422	1.02357380106	0.000775174859
428	35399	1.03163990126	0.0080661002
428	75373	1.07594053316	0.0443006319
428	120845	1.140356047875	0.064415514715
428	170436	1.218742502325	0.07838645445
428	357594	1.218842502325	0
428	357594	3.002773589969	0
438	75553	1.07594056791	0.039534646535
438	113663	1.12797643703	0.05203586912
438	120797	1.140356036107	0.012379599077
438	170139	1.218742453667	0.07838641756
438	357759	1.218842453667	0
438	357759	3.002773606806	0
448	57462	1.055874497643	0.003341397207
448	75661	1.075940597655	0.020066100012
448	120662	1.140356014678	0.064415417023
448	135843	1.158807583915	0.018451569237
448	170328	1.218742483007	0.059934899092
448	357831	1.218842483007	0
448	357831	3.002773616693	0
458	35336	1.031639891505	0.003201365085
458	75319	1.075940521204	0.044300629699
458	120884	1.140356060544	0.06441553934
458	170358	1.218742487715	0.078386427171
458	357732	1.218842487715	0
458	357732	3.00277360404	0
468	29201	1.022798641872	0.000791647063
468	29476	1.0235738127	0.000775170828
468	35465	1.031639919198	0.008066106498
468	75412	1.075940539708	0.04430062051
468	120935	1.140356071044	0.064415531336
468	170472	1.218742513886	0.078386442842
468	357828	1.218842513886	0
468	357828	3.002773616675	0
478	75505	1.075940556062	0.039534646184
478	120803	1.140356037589	0.064415481527
478	148483	1.180589650516	0.040233612927
478	162331	1.204907405842	0.024317755326
478	170160	1.21874245778	0.013835051938
478	357687	1.21884245778	0
478	357687	3.00277359926	0
488	57419	1.055874486817	0.003341386243
488	75658	1.075940596955	0.020066110138
488	120734	1.140356027047	0.064415430092
488	122541	1.14271146131	0.002355434263
488	133881	1.156254179381	0.013542718071
488	155921	1.193113708631	0.03685952925
488	161014	1.202639523706	0.009525815075
488	170262	1.218742473561	0.016102949855
488	357846	1.218842473561	0
488	357846	3.002773622567	0
498	28964	1.022798611724	0.000791604956
498	29491	1.02357381552	0.000775203796
498	33545	1.029594650787	0.006020835267
498	35288	1.031639887461	0.002045236674
498	75331	1.075940524805	0.044300637344
498	120836	1.140356046323	0.064415521518
498	170376	1.218742491312	0.078386444989
498	357561	1.218842491312	0
498	357561	3.00277358633	0
508	71570	1.071433961608	0.027988796555
508	75538	1.075940562471	0.004506600863
508	83466	1.086151111954	0.010210549483
508	120668	1.140356015338	0.054204903384
508	170391	1.218742491953	0.078386476615
508	357510	1.218842491953	0
508	357510	3.002773576713	0
518	57434	1.05587449056	0.003341394949
518	75637	1.0759405902	0.02006609964
518	120722	1.1403560265	0.0644154363
518	122520	1.1427114568	0.0023554303
518	133870	1.156254175612	0.013542718812
518	149323	1.181981568862	0.02572739325
518	170241	1.218742472215	0.036760903353
518	251655	1.354309568862	0.135567096647
518	357834	1.354409568862	0
518	357834	3.002773616972	0
528	40320	1.037508268659	0.001102344371
528	75475	1.075940551585	0.038432282926
528	83478	1.086151113066	0.010210561481
528	120686	1.140356018756	0.05420490569
528	170310	1.218742481519	0.078386462763
528	358459	1.218842481519	0
528	358459	3.00581023785	0
528	383746	3.036152470031	0.030342232181
529	357336	2	1
529	357337	3	0
538	75565	1.075940569548	0.039534644812
538	91769	1.095344288076	0.019403718528
538	120707	1.140356022909	0.045011734833
538	170112	1.218742445088	0.078386422179
538	357681	1.218842445088	0
538	357681	3.002773598245	0
548	29078	1.022798625358	0.000791628929
548	29521	1.023573819025	0.000775193667
548	35417	1.031639903474	0.008066084449
548	75301	1.075940511759	0.044300608285
548	120905	1.14035606323	0.064415551471
548	170454	1.218742505418	0.078386442188
548	357714	1.218842505418	0
548	357714	3.002773602783	0
558	29015	1.022798616981	0.000791615061
558	29407	1.023573792709	0.000775175728
558	30971	1.026045486572	0.002471693863
558	35321	1.031639891161	0.005594404589
558	75400	1.075940536925	0.044300645764
558	120812	1.140356040547	0.064415503622
558	170361	1.218742489154	0.078386448607
558	357546	1.218842489154	0
558	357546	3.002773584711	0
568	29009	1.022798615694	0.000791609113
568	29527	1.023573820606	0.000775204912
568	35354	1.031639894447	0.008066073841
568	75298	1.075940510807	0.04430061636
568	120881	1.140356060398	0.064415549591
568	170412	1.218742495066	0.078386434668
568	357702	1.218842495066	0
568	357702	3.002773601031	0
578	40209	1.037508257249	0.001102344823
578	75472	1.075940550351	0.038432293102
578	83493	1.086151115131	0.01021056478
578	120767	1.140356032235	0.054204917104
578	170181	1.218742461795	0.07838642956
578	357576	1.218842461795	0
578	357576	3.002773588752	0
588	29165	1.022798635858	0.000791653426
588	29437	1.02357380537	0.000775169512
588	35453	1.031639913107	0.008066107737
588	75370	1.075940533028	0.044300619921
588	120908	1.140356063283	0.064415530255
588	170466	1.218742510968	0.078386447685
588	357762	1.218842510968	0
588	357762	3.002773606809	0
598	29171	1.022798637265	0.000791662213
598	29455	1.023573809361	0.000775172096
598	35456	1.03163991431	0.008066104949
598	75358	1.075940531535	0.044300617225
598	120902	1.140356063211	0.064415531676
598	170475	1.218742514324	0.078386451113
598	357744	1.218842514324	0
598	357744	3.002773605642	0
608	75667	1.075940598218	0.008032846995
608	105614	1.114923516963	0.038982918745
608	115394	1.131842481222	0.016918964259
608	120589	1.140355990828	0.008513509606
608	144416	1.174307066516	0.033951075688
608	160900	1.202639511026	0.02833244451
608	170337	1.218742485064	0.016102974038
608	357780	1.218842485064	0
608	357780	3.002773608907	0
618	57398	1.055874477402	0.003341387665
618	75625	1.075940587462	0.02006611006
618	120695	1.140356020139	0.064415432677
618	121591	1.141430172008	0.001074151869
618	155873	1.193113701258	0.05168352925
618	170193	1.218742463564	0.025628762306
618	357801	1.218842463564	0
618	357801	3.00277361174	0
628	35333	1.031639891388	0.003201356101
628	75316	1.075940518234	0.044300626846
628	120893	1.140356061657	0.064415543423
628	170367	1.218742491117	0.07838642946
628	357735	1.218842491117	0
628	357735	3.002773604315	0
638	58294	1.057265603628	0.004732508483
638	75604	1.075940580899	0.018674977271
638	91775	1.095344288832	0.019403707933
638	120590	1.140355990828	0.045011701996
638	170304	1.218742480067	0.078386489239
638	357585	1.218842480067	0
638	357585	3.002773589569	0
648	40263	1.037508262255	0.001102352654
648	75427	1.075940542454	0.038432280199
648	120764	1.140356031974	0.06441548952
648	170292	1.218742476398	0.078386444424
648	357525	1.218842476398	0
648	357525	3.00277357922	0
658	29084	1.022798626396	0.000791639586
658	29413	1.023573799563	0.000775173167
658	35411	1.031639902952	0.008066103389
658	75349	1.075940529404	0.044300626452
658	120857	1.140356053156	0.064415523752
658	170445	1.218742502703	0.078386449547
658	357639	1.218842502703	0
658	357639	3.002773595158	0
668	75643	1.075940590917	0.018674989693
668	120599	1.140355996021	0.064415405104
668	160969	1.202639518156	0.062283522135
668	170406	1.218742493869	0.016102975713
668	225722	1.307099051623	0.088356557754
668	357705	1.307199051623	0
668	357705	3.002773601243	0
678	54004	1.052533077626	0.006924858027
678	57427	1.055874488589	0.003341410963
678	59375	1.058132023908	0.002257535319
678	75577	1.075940571808	0.0178085479
678	91745	1.095344284823	0.019403713015
678	120650	1.14035601214	0.045011727317
678	170145	1.2187424559	0.07838644376
678	357618	1.2188424559	0
678	357618	3.002773592329	0
688	57407	1.055874484184	0.01026626301
688	59366	1.058132017996	0.002257533812
688	75580	1.075940573709	0.017808555713
688	91814	1.095344293086	0.019403719377
688	120719	1.140356024722	0.045011731636
688	170118	1.218742445605	0.078386420883
688	357720	1.218842445605	0
688	357720	3.002773603225	0
698	75586	1.075940574543	0.030332351973
698	91733	1.095344283864	0.019403709321