version 2
run General-0-20120521-14:31:38-1444
attr configname General
attr datetime 20120521-14:31:38
attr experiment General
attr inifile omnetpp.ini
attr iterationvars ""
attr iterationvars2 $repetition=0
attr measurement ""
attr network DataCentricNet
attr processid 1444
attr repetition 0
attr replication #0
attr resultdir results
attr runnumber 0
attr seedset 0

vector 500  DataCentricNet.dataCentricNetworkMan  ControlPackets  ETV
vector 501  DataCentricNet.dataCentricNetworkMan  controlPacketFrequency  ETV
500	301	3	1
500	302	3	2
500	303	3	3
500	304	3	4
500	305	3	5
500	306	3	6
500	307	3	7
500	308	3	8
500	309	3	9
500	310	3	10
500	311	3	11
500	312	3	12
500	313	3	13
500	314	3	14
500	315	3	15
500	316	3	16
500	317	3	17
500	318	3	18
500	319	3	19
500	320	3	20
500	321	3	21
500	322	3	22
500	323	3	23
500	324	3	24
500	325	3	25
500	326	3	26
500	327	3	27
500	328	3	28
500	329	3	29
500	330	3	30
500	331	3	31
500	332	3	32
500	333	3	33
500	334	3	34
500	335	3	35
500	336	3	36
500	337	3	37
500	338	3	38
500	339	3	39
500	340	3	40
500	341	3	41
500	342	3	42
500	343	3	43
500	344	3	44
500	345	3	45
500	346	3	46
500	347	3	47
500	348	3	48
500	349	3	49
500	350	3	50
500	351	3	51
500	352	3	52
500	353	3	53
500	354	3	54
500	355	3	55
500	356	3	56
500	357	3	57
500	358	3	58
500	359	3	59
500	360	3	60
500	361	3	61
500	362	3	62
500	363	3	63
500	364	3	64
500	365	3	65
500	366	3	66
500	367	3	67
500	368	3	68
500	369	3	69
500	370	3	70
500	371	3	71
500	372	3	72
500	373	3	73
500	374	3	74
500	375	3	75
500	376	3	76
500	377	3	77
500	378	3	78
500	379	3	79
500	380	3	80
500	381	3	81
500	382	3	82
500	383	3	83
500	384	3	84
500	385	3	85
500	386	3	86
500	387	3	87
500	388	3	88
500	389	3	89
500	390	3	90
500	391	3	91
500	392	3	92
500	393	3	93
500	394	3	94
500	395	3	95
500	396	3	96
500	397	3	97
500	398	3	98
500	399	3	99
500	400	3	100
500	22670	3.018000221177	1
500	23895	3.021302016317	2
500	24129	3.024288245318	1
500	24570	3.025722170202	2
500	24572	3.025722170202	3
500	24573	3.025722170202	4
500	24582	3.025722174344	5
500	24583	3.025722174344	6
500	24585	3.025722174344	7
500	24807	3.027088255318	8
500	24808	3.027088255318	9
500	24809	3.027088255318	10
500	24819	3.02708825946	11
500	24820	3.02708825946	12
500	24821	3.02708825946	13
500	25038	3.027704380552	14
500	25049	3.027704384694	15
500	25051	3.027704384694	16
500	25268	3.02868826946	1
500	25729	3.030304045788	2
500	25731	3.030304045788	3
500	25741	3.03030404993	4
500	25742	3.03030404993	5
500	25744	3.03030404993	6
500	25981	3.031212421346	7
500	25992	3.031212425488	8
500	25993	3.031212425488	9
500	26309	3.031583948895	10
500	26320	3.031583953037	11
500	26321	3.031583953037	12
500	26437	3.031647767055	13
500	27099	3.032732407427	14
500	27111	3.032732411569	15
500	27363	3.033585830934	1
500	27593	3.033903767055	2
500	27918	3.034461739244	3
500	28044	3.034499835655	4
500	29378	3.036040146585	5
500	29379	3.036040146585	6
500	29388	3.036040150727	7
500	29826	3.036447866228	8
500	29834	3.03644787037	9
500	30296	3.037155378406	10
500	30309	3.037155382548	11
500	30534	3.037737865692	12
500	30546	3.037737869834	13
500	30547	3.037737869834	14
500	30869	3.03800270007	1
500	30881	3.038002704212	2
500	31088	3.038033153258	3
500	31093	3.0380331574	4
500	31211	3.038226948454	5
500	31223	3.038226952596	6
500	31903	3.039306593111	7
500	32252	3.040176964789	8
500	33705	3.041359386794	9
500	34253	3.041779181734	10
500	34263	3.041779185876	11
500	34370	3.041847749633	12
500	34371	3.041847749633	13
500	34380	3.041847753775	14
500	34381	3.041847753775	15
500	34382	3.041847753775	16
500	34601	3.041991374418	17
500	34830	3.042287118297	18
500	34831	3.042287118297	19
500	34842	3.042287122439	20
500	34843	3.042287122439	21
500	35057	3.04250993001	22
500	35058	3.04250993001	23
500	35068	3.042509934152	24
500	35070	3.042509934152	25
500	35299	3.043200989954	1
500	35301	3.043200989954	2
500	35302	3.043200989954	3
500	35312	3.043200994096	4
500	35314	3.043200994096	5
500	35872	3.04445480898	6
500	35995	3.044528481962	7
500	36449	3.045064461689	8
500	36450	3.045064461689	9
500	36459	3.045064465831	10
500	36460	3.045064465831	11
500	36941	3.045866515988	12
500	37492	3.046493723178	13
500	37493	3.046493723178	14
500	37502	3.04649372732	15
500	37503	3.04649372732	16
500	38080	3.047055403292	17
500	38091	3.047055407434	18
500	38318	3.04732275891	19
500	38320	3.04732275891	20
500	38331	3.047322763052	21
500	38333	3.047322763052	22
500	38866	3.047622805296	23
500	38868	3.047622805296	24
500	38878	3.047622809438	25
500	38879	3.047622809438	26
500	38982	3.047683714424	27
500	39674	3.048309770917	1
500	39681	3.048309775059	2
500	39682	3.048309775059	3
500	40020	3.04845622792	4
500	40346	3.048606930294	5
500	40588	3.048822350821	6
500	40599	3.048822354963	7
500	41832	3.049829537386	8
500	42190	3.050174646972	9
500	42525	3.050578474014	10
500	42526	3.050578474014	11
500	42536	3.050578478156	12
500	42538	3.050578478156	13
500	42655	3.050604907231	14
500	43213	3.051035585233	15
500	43214	3.051035585233	16
500	43223	3.051035589375	17
500	43780	3.051381805381	18
500	44011	3.051539665813	19
500	44121	3.051557966274	20
500	44122	3.051557966274	21
500	44132	3.051557970416	22
500	44689	3.052275216132	23
500	44700	3.052275220274	24
500	44702	3.052275220274	25
500	44820	3.052278154832	26
500	44937	3.052483826261	27
500	44947	3.052483830403	28
500	44948	3.052483830403	29
500	45169	3.052867039582	30
500	45170	3.052867039582	31
500	45182	3.052867043724	32
500	45529	3.053159132179	1
500	45742	3.053289833089	2
500	45753	3.053289837231	3
500	46362	3.054406620114	4
500	46372	3.054406624256	5
500	47020	3.054962922072	6
500	47160	3.055097017032	7
500	47736	3.055563805189	8
500	47738	3.055563805189	9
500	47739	3.055563805189	10
500	47749	3.055563809331	11
500	47957	3.055595343302	12
500	48418	3.056014793437	13
500	48424	3.056014797579	14
500	49427	3.056735709015	15
500	49766	3.056982620114	16
500	49779	3.056982624256	17
500	50333	3.057273556748	18
500	50335	3.057273556748	19
500	50344	3.05727356089	20
500	50345	3.05727356089	21
500	50449	3.057319618585	22
500	50458	3.057319622727	23
500	50710	3.057986004348	24
500	50723	3.05798600849	25
500	50956	3.058356054929	1
500	50969	3.058356059071	2
500	51621	3.058688254823	3
500	51632	3.058688258965	4
500	51633	3.058688258965	5
500	51739	3.058708427392	6
500	51859	3.058742738728	7
500	51870	3.05874274287	8
500	51872	3.05874274287	9
500	52214	3.059053537386	10
500	52215	3.059053537386	11
500	52225	3.059053541528	12
500	52226	3.059053541528	13
500	52227	3.059053541528	14
500	52331	3.059059648482	15
500	52333	3.059059648482	16
500	52344	3.059059652624	17
500	52346	3.059059652624	18
500	53804	3.059922004348	19
500	53815	3.05992200849	20
500	54926	3.060444857735	21
500	55620	3.060998738728	22
500	55633	3.06099874287	23
500	56652	3.061892054929	24
500	56664	3.061892059071	25
500	57863	3.062247351792	26
500	59534	3.062884427391	27
500	60775	3.063825982682	1
500	60882	3.063922377245	2
500	60887	3.063922381387	3
500	61550	3.064351544043	4
500	61775	3.064413523294	5
500	63451	3.066185723719	6
500	63559	3.066228181334	7
500	63570	3.066228185476	8
500	63572	3.066228185476	9
500	64360	3.06758614312	10
500	64480	3.067748857735	11
500	65615	3.069623351791	1
500	65626	3.069623355933	2
500	65740	3.069786219782	3
500	65750	3.069786223924	4
500	65751	3.069786223924	5
500	66093	3.070151932758	6
500	66099	3.0701519369	7
500	66884	3.071272956633	8
500	67464	3.07163567639	9
500	67933	3.07254814088	10
500	68491	3.073772857735	1
500	69070	3.074829273901	2
500	69403	3.075326156886	3
500	69981	3.077405273901	4
500	70221	3.078068995366	1
500	70232	3.078068999508	2
500	70234	3.078068999508	3
500	71785	3.080121631895	4
501	8678	3.005	100
501	19734	3.01	0
501	24005	3.023000221177	2
501	25148	3.028000221177	16
501	27217	3.033000221177	15
501	30854	3.038000221177	14
501	35282	3.043000221177	25
501	39208	3.048000221177	27
501	45385	3.053000221177	32
501	50815	3.058000221177	25
501	59746	3.063000221177	27
501	64595	3.068000221177	11
501	68035	3.073000221177	10
501	70206	3.078000221177	4
501	72338	3.083000221177	4
501	72790	3.088000221177	0
