version 2
run General-0-20120703-17:16:39-1876
attr configname General
attr datetime 20120703-17:16:39
attr experiment General
attr inifile omnetpp.ini
attr iterationvars ""
attr iterationvars2 $repetition=0
attr measurement ""
attr network DataCentricNet
attr processid 1876
attr repetition 0
attr replication #0
attr resultdir results
attr runnumber 0
attr seedset 0

vector 400  DataCentricNet.dataCentricNetworkMan  ControlPackets  ETV
vector 401  DataCentricNet.dataCentricNetworkMan  controlPacketFrequency  ETV
vector 402  DataCentricNet.dataCentricNetworkMan  helloPacketFrequency  ETV
vector 403  DataCentricNet.dataCentricNetworkMan  helloBackPacketFrequency  ETV
vector 404  DataCentricNet.dataCentricNetworkMan  bcastInterestPacketFrequency  ETV
vector 405  DataCentricNet.dataCentricNetworkMan  ucastInterestPacketFrequency  ETV
vector 406  DataCentricNet.dataCentricNetworkMan  advertPacketFrequency  ETV
vector 407  DataCentricNet.dataCentricNetworkMan  reinforcementPacketFrequency  ETV
400	207	1	1
400	208	1	2
400	209	1	3
400	210	1	4
400	211	1	5
400	212	1	6
400	213	1	7
400	214	1	8
400	215	1	9
400	216	1	10
400	216	1	11
400	217	1	12
400	218	1	13
400	219	1	14
400	220	1	15
400	221	1	16
400	222	1	17
400	223	1	18
400	224	1	19
400	225	1	20
400	226	1	21
400	227	1	22
400	228	1	23
400	229	1	24
400	230	1	25
400	231	1	26
400	232	1	27
400	233	1	28
400	234	1	29
400	235	1	30
400	236	1	31
400	237	1	32
400	238	1	33
400	239	1	34
400	240	1	35
400	241	1	36
400	242	1	37
400	243	1	38
400	244	1	39
400	245	1	40
400	246	1	41
400	247	1	42
400	248	1	43
400	249	1	44
400	250	1	45
400	251	1	46
400	252	1	47
400	253	1	48
400	254	1	49
400	255	1	50
400	256	1	51
400	257	1	52
400	258	1	53
400	259	1	54
400	260	1	55
400	261	1	56
400	262	1	57
400	263	1	58
400	264	1	59
400	265	1	60
400	266	1	61
400	267	1	62
400	268	1	63
400	269	1	64
400	270	1	65
400	271	1	66
400	272	1	67
400	273	1	68
400	274	1	69
400	275	1	70
400	276	1	71
400	277	1	72
400	278	1	73
400	279	1	74
400	280	1	75
400	281	1	76
400	282	1	77
400	283	1	78
400	284	1	79
400	285	1	80
400	286	1	81
400	287	1	82
400	288	1	83
400	289	1	84
400	290	1	85
400	291	1	86
400	292	1	87
400	293	1	88
400	294	1	89
400	295	1	90
400	296	1	91
400	297	1	92
400	297	1	93
400	298	1	94
400	299	1	95
400	300	1	96
400	301	1	97
400	302	1	98
400	303	1	99
400	304	1	100
400	305	1	101
400	306	1	102
400	7149	1.00746017364	1
400	18691	1.021689376476	1
400	25458	1.045829436214	1
400	27929	1.061630521288	1
400	27932	1.061630524819	2
400	27935	1.061630524884	3
400	27938	1.06163053134	4
400	27941	1.061630531834	5
400	27944	1.06163053408	6
400	27947	1.061630536916	7
400	27950	1.06163053737	8
400	28353	1.063506337111	9
400	28356	1.063506337283	10
400	28359	1.063506338039	11
400	28365	1.063506340223	12
400	28368	1.063506340997	13
400	28374	1.063506342631	14
400	28779	1.065180628216	15
400	28782	1.065180628464	16
400	28785	1.065180629732	17
400	28788	1.065180630019	18
400	28797	1.065180631253	19
400	29315	1.066049818017	20
400	29777	1.067499539881	1
400	29786	1.067499543998	2
400	29792	1.067499544585	3
400	31519	1.072183006617	1
400	31522	1.072183010694	2
400	31942	1.073522447825	3
400	31948	1.073522450319	4
400	31951	1.073522452923	5
400	32488	1.075533299371	6
400	32491	1.075533300029	7
400	32494	1.075533300353	8
400	32936	1.076987554422	1
400	33363	1.078206171325	2
400	33366	1.078206171805	3
400	33804	1.07959706821	4
400	33813	1.079597070962	5
400	34230	1.080789599736	6
400	34233	1.080789599818	7
400	34668	1.082347046922	1
400	35284	1.084201694308	2
400	35287	1.084201696818	3
400	35296	1.084201704342	4
400	35301	1.084201705692	5
400	35304	1.084201706492	6
400	36798	1.088249044506	1
400	36801	1.08824904629	2
400	36804	1.088249046556	3
400	36807	1.088249047423	4
400	36810	1.088249051765	5
400	36813	1.088249051839	6
400	36819	1.088249056268	7
400	37398	1.090121515282	8
400	37407	1.090121517779	9
400	37413	1.090121518015	10
400	37970	1.091661391838	1
400	37985	1.091661404978	2
400	38462	1.09308619599	3
400	39856	1.095957378691	4
400	40402	1.097144850319	1
400	40932	1.098488872921	2
400	40935	1.0984888745	3
400	41369	1.100271030086	4
400	41375	1.100271032247	5
400	41378	1.100271032427	6
400	41793	1.101548773255	7
400	41796	1.10154877458	8
400	41799	1.101548775692	9
400	42236	1.102747883294	1
400	43186	1.105813002683	2
400	43189	1.105813011021	3
400	43738	1.107116972685	1
400	44185	1.109037357631	2
400	44605	1.110516620811	3
400	45149	1.112863301125	1
400	45152	1.112863305043	2
400	45155	1.112863305203	3
400	45158	1.112863308617	4
400	45729	1.114338900192	5
400	45732	1.114338902097	6
400	46171	1.116081994197	7
400	46598	1.117746387115	1
400	47439	1.120357366273	2
400	47445	1.120357378033	3
400	47448	1.120357378691	4
400	47861	1.121589735171	5
400	48397	1.124381002683	1
400	48400	1.124381011021	2
400	48854	1.126537512591	3
400	48860	1.126537515282	4
400	48869	1.126537517779	5
400	49272	1.127829200069	1
400	49275	1.12782920646	2
400	49278	1.12782920857	3
400	49281	1.127829211035	4
400	50164	1.131584773395	5
400	50167	1.131584774348	6
400	50801	1.133615434579	1
400	50804	1.13361543525	2
400	51344	1.135786218169	3
400	51350	1.135786229929	4
400	51353	1.135786230587	5
400	51797	1.138308448532	1
400	52343	1.139969185213	2
400	53314	1.143162941942	1
400	53317	1.143162950843	2
400	53841	1.145007474997	3
400	53844	1.145007475388	4
400	53847	1.14500747772	5
400	53850	1.145007478291	6
400	54327	1.146365824137	7
400	54330	1.146365824568	8
400	55616	1.149583936305	1
400	55619	1.149583938529	2
400	55622	1.149583942831	3
400	56057	1.151379842617	4
400	56494	1.153017934107	1
400	56497	1.153017935073	2
400	56906	1.154678961651	3
400	57349	1.156112863392	4
400	57865	1.157490905111	1
400	57868	1.157490907041	2
400	59273	1.163543349221	1
400	60521	1.169903474997	1
400	60524	1.169903475388	2
400	60527	1.16990347772	3
400	60530	1.169903478291	4
400	60966	1.172256251228	1
400	61481	1.173723869509	2
400	61484	1.173723869991	3
400	61940	1.175591588763	4
400	62904	1.17906500345	1
400	62907	1.179065005674	2
400	62910	1.179065009976	3
400	63330	1.180408241864	4
400	63339	1.180408248494	5
400	63342	1.180408251227	6
400	64192	1.184080241864	1
400	64201	1.184080248494	2
400	64204	1.184080251227	3
400	65298	1.186612973284	4
400	65752	1.188072241864	1
400	65761	1.188072248494	2
400	65764	1.188072251227	3
400	66183	1.18930715981	4
400	66186	1.18930716174	5
400	66713	1.190751387587	6
400	67173	1.192878013882	1
400	67176	1.192878014848	2
400	68215	1.195384793561	3
400	68218	1.195384800615	4
400	68789	1.197079100249	1
400	69764	1.200325546225	2
400	69767	1.200325556663	3
400	71981	1.207448864131	1
400	71987	1.207448865007	2
400	72440	1.209383759816	3
400	72449	1.209383762955	4
400	72452	1.209383764125	5
400	73309	1.212352239127	6
400	74129	1.215345141402	1
400	74132	1.21534514532	2
400	74135	1.21534514548	3
400	74554	1.216875518691	4
400	75197	1.21833661006	1
400	76601	1.222994462676	1
400	76604	1.222994466169	2
400	76607	1.222994468843	3
400	77131	1.224317740526	4
400	77137	1.224317743219	5
400	78331	1.227517798544	1
400	78334	1.227517799204	2
400	78340	1.227517808502	3
400	79931	1.233354523028	1
400	79934	1.233354528026	2
400	79937	1.233354529251	3
400	79946	1.233354536168	4
400	80392	1.234765708095	5
400	81254	1.238054072572	1
400	83312	1.246679924897	1
400	83315	1.246679933235	2
400	84722	1.255336979126	1
400	84725	1.255336983049	2
400	84731	1.255336990598	3
400	85164	1.256592239127	4
400	87054	1.264487761884	1
400	87057	1.264487762837	2
400	87459	1.265818402469	1
400	90399	1.285415387587	1
400	92593	1.31124188017	1
400	92596	1.311241881225	2
400	93431	1.316540520908	1
400	93434	1.316540521498	2
400	93440	1.316540527285	3
400	95633	1.350432459948	1
400	95636	1.350432467361	2
400	97302	1.363012346459	1
400	97305	1.363012347784	2
400	99712	2	1
400	99715	2	2
400	100004	2.005482945038	1
400	100741	2.009846293424	2
400	101371	2.013953326726	1
400	102005	2.016082837776	1
400	102632	2.017802152477	2
400	103258	2.025002713312	1
400	103884	2.027906843698	2
400	105150	2.03530105705	1
400	105783	2.040972959811	1
401	3651	1.005	102
401	10976	1.01	1
401	15007	1.015	0
401	20988	1.026689376476	1
401	21952	1.031689376476	0
401	26566	1.050829436214	1
401	27393	1.055829436214	0
401	29748	1.066630521288	20
401	31502	1.071630521288	3
401	32917	1.076630521288	8
401	34629	1.081630521288	7
401	36255	1.086630521288	6
401	37963	1.091630521288	10
401	40368	1.096630521288	4
401	42088	1.101630521288	9
401	43727	1.106630521288	3
401	44905	1.111630521288	3
401	46469	1.116630521288	7
401	48150	1.121630521288	5
401	49149	1.126630521288	5
401	50450	1.131630521288	6
401	51654	1.136630521288	5
401	53183	1.141630521288	2
401	54622	1.146630521288	8
401	56355	1.151630521288	4
401	57737	1.156630521288	4
401	59135	1.161630521288	2
401	60093	1.166630521288	1
401	60933	1.171630521288	4
401	62342	1.176630521288	4
401	63634	1.181630521288	6
401	65516	1.186630521288	4
401	67033	1.191630521288	6
401	68762	1.196630521288	4
401	70478	1.201630521288	3
401	71965	1.206630521288	0
401	73586	1.212448864131	6
401	75067	1.217448864131	4
401	76593	1.222448864131	1
401	78323	1.227448864131	5
401	79922	1.232448864131	3
401	81223	1.237448864131	5
401	82778	1.242448864131	1
401	83607	1.247448864131	2
401	84586	1.252448864131	0
401	86089	1.260336979126	4
401	87449	1.265336979126	2
401	88295	1.270336979126	1
401	89020	1.275336979126	0
401	90796	1.290415387587	1
401	91101	1.295415387587	0
401	93421	1.31624188017	2
401	94385	1.32124188017	3
401	95107	1.32624188017	0
401	96348	1.355432459948	2
401	96879	1.360432459948	0
401	98129	1.368012346459	2
401	98548	1.373012346459	0
401	99997	2.005	2
401	100936	2.01	2
401	101881	2.015	1
401	103135	2.02	2
401	103251	2.025	0
401	104399	2.030002713312	2
401	105139	2.035002713312	0
401	105768	2.04030105705	1
401	106288	2.04530105705	1
401	106915	2.05030105705	0
402	3651	1.005	100
402	10976	1.01	0
402	15007	1.015	0
402	20988	1.026689376476	0
402	21952	1.031689376476	0
402	26566	1.050829436214	0
402	27393	1.055829436214	0
402	29748	1.066630521288	0
402	31502	1.071630521288	0
402	32917	1.076630521288	0
402	34629	1.081630521288	0
402	36255	1.086630521288	0
402	37963	1.091630521288	0
402	40368	1.096630521288	0
402	42088	1.101630521288	0
402	43727	1.106630521288	0
402	44905	1.111630521288	0
402	46469	1.116630521288	0
402	48150	1.121630521288	0
402	49149	1.126630521288	0
402	50450	1.131630521288	0
402	51654	1.136630521288	0
402	53183	1.141630521288	0
402	54622	1.146630521288	0
402	56355	1.151630521288	0
402	57737	1.156630521288	0
402	59135	1.161630521288	0
402	60093	1.166630521288	0
402	60933	1.171630521288	0
402	62342	1.176630521288	0
402	63634	1.181630521288	0
402	65516	1.186630521288	0
402	67033	1.191630521288	0
402	68762	1.196630521288	0
402	70478	1.201630521288	0
402	71965	1.206630521288	0
402	73586	1.212448864131	0
402	75067	1.217448864131	0
402	76593	1.222448864131	0
402	78323	1.227448864131	0
402	79922	1.232448864131	0
402	81223	1.237448864131	0
402	82778	1.242448864131	0
402	83607	1.247448864131	0
402	84586	1.252448864131	0
402	86089	1.260336979126	0
402	87449	1.265336979126	0
402	88295	1.270336979126	0
402	89020	1.275336979126	0
402	90796	1.290415387587	0
402	91101	1.295415387587	0
402	93421	1.31624188017	0
402	94385	1.32124188017	0
402	95107	1.32624188017	0
402	96348	1.355432459948	0
402	96879	1.360432459948	0
402	98129	1.368012346459	0
402	98548	1.373012346459	0
402	99997	2.005	0
402	100936	2.01	0
402	101881	2.015	0
402	103135	2.02	0
402	103251	2.025	0
402	104399	2.030002713312	0
402	105139	2.035002713312	0
402	105768	2.04030105705	0
402	106288	2.04530105705	0
402	106915	2.05030105705	0
403	3651	1.005	0
403	10976	1.01	0
403	15007	1.015	0
403	20988	1.026689376476	0
403	21952	1.031689376476	0
403	26566	1.050829436214	0
403	27393	1.055829436214	0
403	29748	1.066630521288	0
403	31502	1.071630521288	0
403	32917	1.076630521288	0
403	34629	1.081630521288	0
403	36255	1.086630521288	0
403	37963	1.091630521288	0
403	40368	1.096630521288	0
403	42088	1.101630521288	0
403	43727	1.106630521288	0
403	44905	1.111630521288	0
403	46469	1.116630521288	0
403	48150	1.121630521288	0
403	49149	1.126630521288	0
403	50450	1.131630521288	0
403	51654	1.136630521288	0
403	53183	1.141630521288	0
403	54622	1.146630521288	0
403	56355	1.151630521288	0
403	57737	1.156630521288	0
403	59135	1.161630521288	0
403	60093	1.166630521288	0
403	60933	1.171630521288	0
403	62342	1.176630521288	0
403	63634	1.181630521288	0
403	65516	1.186630521288	0
403	67033	1.191630521288	0
403	68762	1.196630521288	0
403	70478	1.201630521288	0
403	71965	1.206630521288	0
403	73586	1.212448864131	0
403	75067	1.217448864131	0
403	76593	1.222448864131	0
403	78323	1.227448864131	0
403	79922	1.232448864131	0
403	81223	1.237448864131	0
403	82778	1.242448864131	0
403	83607	1.247448864131	0
403	84586	1.252448864131	0
403	86089	1.260336979126	0
403	87449	1.265336979126	0
403	88295	1.270336979126	0
403	89020	1.275336979126	0
403	90796	1.290415387587	0
403	91101	1.295415387587	0
403	93421	1.31624188017	0
403	94385	1.32124188017	0
403	95107	1.32624188017	0
403	96348	1.355432459948	0
403	96879	1.360432459948	0
403	98129	1.368012346459	0
403	98548	1.373012346459	0
403	99997	2.005	0
403	100936	2.01	0
403	101881	2.015	0
403	103135	2.02	0
403	103251	2.025	0
403	104399	2.030002713312	0
403	105139	2.035002713312	0
403	105768	2.04030105705	0
403	106288	2.04530105705	0
403	106915	2.05030105705	0
404	3651	1.005	1
404	10976	1.01	0
404	15007	1.015	0
404	20988	1.026689376476	1
404	21952	1.031689376476	0
404	26566	1.050829436214	1
404	27393	1.055829436214	0
404	29748	1.066630521288	20
404	31502	1.071630521288	3
404	32917	1.076630521288	8
404	34629	1.081630521288	7
404	36255	1.086630521288	6
404	37963	1.091630521288	10
404	40368	1.096630521288	4
404	42088	1.101630521288	9
404	43727	1.106630521288	3
404	44905	1.111630521288	3
404	46469	1.116630521288	7
404	48150	1.121630521288	5
404	49149	1.126630521288	5
404	50450	1.131630521288	6
404	51654	1.136630521288	5
404	53183	1.141630521288	2
404	54622	1.146630521288	8
404	56355	1.151630521288	4
404	57737	1.156630521288	4
404	59135	1.161630521288	2
404	60093	1.166630521288	1
404	60933	1.171630521288	4
404	62342	1.176630521288	4
404	63634	1.181630521288	6
404	65516	1.186630521288	4
404	67033	1.191630521288	6
404	68762	1.196630521288	4
404	70478	1.201630521288	3
404	71965	1.206630521288	0
404	73586	1.212448864131	6
404	75067	1.217448864131	4
404	76593	1.222448864131	1
404	78323	1.227448864131	5
404	79922	1.232448864131	3
404	81223	1.237448864131	5
404	82778	1.242448864131	1
404	83607	1.247448864131	2
404	84586	1.252448864131	0
404	86089	1.260336979126	4
404	87449	1.265336979126	2
404	88295	1.270336979126	1
404	89020	1.275336979126	0
404	90796	1.290415387587	1
404	91101	1.295415387587	0
404	93421	1.31624188017	2
404	94385	1.32124188017	3
404	95107	1.32624188017	0
404	96348	1.355432459948	2
404	96879	1.360432459948	0
404	98129	1.368012346459	2
404	98548	1.373012346459	0
404	99997	2.005	0
404	100936	2.01	0
404	101881	2.015	0
404	103135	2.02	0
404	103251	2.025	0
404	104399	2.030002713312	0
404	105139	2.035002713312	0
404	105768	2.04030105705	0
404	106288	2.04530105705	0
404	106915	2.05030105705	0
405	3651	1.005	0
405	10976	1.01	0
405	15007	1.015	0
405	20988	1.026689376476	0
405	21952	1.031689376476	0
405	26566	1.050829436214	0
405	27393	1.055829436214	0
405	29748	1.066630521288	0
405	31502	1.071630521288	0
405	32917	1.076630521288	0
405	34629	1.081630521288	0
405	36255	1.086630521288	0
405	37963	1.091630521288	0
405	40368	1.096630521288	0
405	42088	1.101630521288	0
405	43727	1.106630521288	0
405	44905	1.111630521288	0
405	46469	1.116630521288	0
405	48150	1.121630521288	0
405	49149	1.126630521288	0
405	50450	1.131630521288	0
405	51654	1.136630521288	0
405	53183	1.141630521288	0
405	54622	1.146630521288	0
405	56355	1.151630521288	0
405	57737	1.156630521288	0
405	59135	1.161630521288	0
405	60093	1.166630521288	0
405	60933	1.171630521288	0
405	62342	1.176630521288	0
405	63634	1.181630521288	0
405	65516	1.186630521288	0
405	67033	1.191630521288	0
405	68762	1.196630521288	0
405	70478	1.201630521288	0
405	71965	1.206630521288	0
405	73586	1.212448864131	0
405	75067	1.217448864131	0
405	76593	1.222448864131	0
405	78323	1.227448864131	0
405	79922	1.232448864131	0
405	81223	1.237448864131	0
405	82778	1.242448864131	0
405	83607	1.247448864131	0
405	84586	1.252448864131	0
405	86089	1.260336979126	0
405	87449	1.265336979126	0
405	88295	1.270336979126	0
405	89020	1.275336979126	0
405	90796	1.290415387587	0
405	91101	1.295415387587	0
405	93421	1.31624188017	0
405	94385	1.32124188017	0
405	95107	1.32624188017	0
405	96348	1.355432459948	0
405	96879	1.360432459948	0
405	98129	1.368012346459	0
405	98548	1.373012346459	0
405	99997	2.005	0
405	100936	2.01	0
405	101881	2.015	0
405	103135	2.02	0
405	103251	2.025	0
405	104399	2.030002713312	0
405	105139	2.035002713312	0
405	105768	2.04030105705	0
405	106288	2.04530105705	0
405	106915	2.05030105705	0
406	3651	1.005	1
406	10976	1.01	1
406	15007	1.015	0
406	20988	1.026689376476	0
406	21952	1.031689376476	0
406	26566	1.050829436214	0
406	27393	1.055829436214	0
406	29748	1.066630521288	0
406	31502	1.071630521288	0
406	32917	1.076630521288	0
406	34629	1.081630521288	0
406	36255	1.086630521288	0
406	37963	1.091630521288	0
406	40368	1.096630521288	0
406	42088	1.101630521288	0
406	43727	1.106630521288	0
406	44905	1.111630521288	0
406	46469	1.116630521288	0
406	48150	1.121630521288	0
406	49149	1.126630521288	0
406	50450	1.131630521288	0
406	51654	1.136630521288	0
406	53183	1.141630521288	0
406	54622	1.146630521288	0
406	56355	1.151630521288	0
406	57737	1.156630521288	0
406	59135	1.161630521288	0
406	60093	1.166630521288	0
406	60933	1.171630521288	0
406	62342	1.176630521288	0
406	63634	1.181630521288	0
406	65516	1.186630521288	0
406	67033	1.191630521288	0
406	68762	1.196630521288	0
406	70478	1.201630521288	0
406	71965	1.206630521288	0
406	73586	1.212448864131	0
406	75067	1.217448864131	0
406	76593	1.222448864131	0
406	78323	1.227448864131	0
406	79922	1.232448864131	0
406	81223	1.237448864131	0
406	82778	1.242448864131	0
406	83607	1.247448864131	0
406	84586	1.252448864131	0
406	86089	1.260336979126	0
406	87449	1.265336979126	0
406	88295	1.270336979126	0
406	89020	1.275336979126	0
406	90796	1.290415387587	0
406	91101	1.295415387587	0
406	93421	1.31624188017	0
406	94385	1.32124188017	0
406	95107	1.32624188017	0
406	96348	1.355432459948	0
406	96879	1.360432459948	0
406	98129	1.368012346459	0
406	98548	1.373012346459	0
406	99997	2.005	0
406	100936	2.01	0
406	101881	2.015	0
406	103135	2.02	0
406	103251	2.025	0
406	104399	2.030002713312	0
406	105139	2.035002713312	0
406	105768	2.04030105705	0
406	106288	2.04530105705	0
406	106915	2.05030105705	0
407	3651	1.005	0
407	10976	1.01	0
407	15007	1.015	0
407	20988	1.026689376476	0
407	21952	1.031689376476	0
407	26566	1.050829436214	0
407	27393	1.055829436214	0
407	29748	1.066630521288	0
407	31502	1.071630521288	0
407	32917	1.076630521288	0
407	34629	1.081630521288	0
407	36255	1.086630521288	0
407	37963	1.091630521288	0
407	40368	1.096630521288	0
407	42088	1.101630521288	0
407	43727	1.106630521288	0
407	44905	1.111630521288	0
407	46469	1.116630521288	0
407	48150	1.121630521288	0
407	49149	1.126630521288	0
407	50450	1.131630521288	0
407	51654	1.136630521288	0
407	53183	1.141630521288	0
407	54622	1.146630521288	0
407	56355	1.151630521288	0
407	57737	1.156630521288	0
407	59135	1.161630521288	0
407	60093	1.166630521288	0
407	60933	1.171630521288	0
407	62342	1.176630521288	0
407	63634	1.181630521288	0
407	65516	1.186630521288	0
407	67033	1.191630521288	0
407	68762	1.196630521288	0
407	70478	1.201630521288	0
407	71965	1.206630521288	0
407	73586	1.212448864131	0
407	75067	1.217448864131	0
407	76593	1.222448864131	0
407	78323	1.227448864131	0
407	79922	1.232448864131	0
407	81223	1.237448864131	0
407	82778	1.242448864131	0
407	83607	1.247448864131	0
407	84586	1.252448864131	0
407	86089	1.260336979126	0
407	87449	1.265336979126	0
407	88295	1.270336979126	0
407	89020	1.275336979126	0
407	90796	1.290415387587	0
407	91101	1.295415387587	0
407	93421	1.31624188017	0
407	94385	1.32124188017	0
407	95107	1.32624188017	0
407	96348	1.355432459948	0
407	96879	1.360432459948	0
407	98129	1.368012346459	0
407	98548	1.373012346459	0
407	99997	2.005	2
407	100936	2.01	2
407	101881	2.015	1
407	103135	2.02	2
407	103251	2.025	0
407	104399	2.030002713312	2
407	105139	2.035002713312	0
407	105768	2.04030105705	1
407	106288	2.04530105705	1
407	106915	2.05030105705	0
