version 2
run General-0-20120803-21:25:01-480
attr configname General
attr datetime 20120803-21:25:01
attr experiment General
attr inifile omnetpp.ini
attr iterationvars ""
attr iterationvars2 $repetition=0
attr measurement ""
attr network DataCentricNet
attr processid 480
attr repetition 0
attr replication #0
attr resultdir results
attr runnumber 0
attr seedset 0

vector 600  DataCentricNet.dataCentricNetworkMan  ControlPackets  ETV
vector 601  DataCentricNet.dataCentricNetworkMan  controlPacketFrequency  ETV
vector 602  DataCentricNet.dataCentricNetworkMan  helloPacketFrequency  ETV
vector 603  DataCentricNet.dataCentricNetworkMan  helloBackPacketFrequency  ETV
vector 604  DataCentricNet.dataCentricNetworkMan  bcastInterestPacketFrequency  ETV
vector 605  DataCentricNet.dataCentricNetworkMan  ucastInterestPacketFrequency  ETV
vector 606  DataCentricNet.dataCentricNetworkMan  advertPacketFrequency  ETV
vector 607  DataCentricNet.dataCentricNetworkMan  reinforcementPacketFrequency  ETV
vector 4  DataCentricNet.host[0].net  neighbourLqis  ETV
vector 5  DataCentricNet.host[0].net  RangeLqis  ETV
vector 10  DataCentricNet.host[1].net  neighbourLqis  ETV
vector 11  DataCentricNet.host[1].net  RangeLqis  ETV
vector 16  DataCentricNet.host[2].net  neighbourLqis  ETV
vector 17  DataCentricNet.host[2].net  RangeLqis  ETV
vector 22  DataCentricNet.host[3].net  neighbourLqis  ETV
vector 23  DataCentricNet.host[3].net  RangeLqis  ETV
vector 28  DataCentricNet.host[4].net  neighbourLqis  ETV
vector 29  DataCentricNet.host[4].net  RangeLqis  ETV
vector 34  DataCentricNet.host[5].net  neighbourLqis  ETV
vector 35  DataCentricNet.host[5].net  RangeLqis  ETV
vector 40  DataCentricNet.host[6].net  neighbourLqis  ETV
vector 41  DataCentricNet.host[6].net  RangeLqis  ETV
vector 46  DataCentricNet.host[7].net  neighbourLqis  ETV
vector 47  DataCentricNet.host[7].net  RangeLqis  ETV
vector 52  DataCentricNet.host[8].net  neighbourLqis  ETV
vector 53  DataCentricNet.host[8].net  RangeLqis  ETV
vector 58  DataCentricNet.host[9].net  neighbourLqis  ETV
vector 59  DataCentricNet.host[9].net  RangeLqis  ETV
vector 64  DataCentricNet.host[10].net  neighbourLqis  ETV
vector 65  DataCentricNet.host[10].net  RangeLqis  ETV
vector 70  DataCentricNet.host[11].net  neighbourLqis  ETV
vector 71  DataCentricNet.host[11].net  RangeLqis  ETV
vector 76  DataCentricNet.host[12].net  neighbourLqis  ETV
vector 77  DataCentricNet.host[12].net  RangeLqis  ETV
vector 82  DataCentricNet.host[13].net  neighbourLqis  ETV
vector 83  DataCentricNet.host[13].net  RangeLqis  ETV
vector 88  DataCentricNet.host[14].net  neighbourLqis  ETV
vector 89  DataCentricNet.host[14].net  RangeLqis  ETV
vector 94  DataCentricNet.host[15].net  neighbourLqis  ETV
vector 95  DataCentricNet.host[15].net  RangeLqis  ETV
vector 100  DataCentricNet.host[16].net  neighbourLqis  ETV
vector 101  DataCentricNet.host[16].net  RangeLqis  ETV
vector 106  DataCentricNet.host[17].net  neighbourLqis  ETV
vector 107  DataCentricNet.host[17].net  RangeLqis  ETV
vector 112  DataCentricNet.host[18].net  neighbourLqis  ETV
vector 113  DataCentricNet.host[18].net  RangeLqis  ETV
vector 118  DataCentricNet.host[19].net  neighbourLqis  ETV
vector 119  DataCentricNet.host[19].net  RangeLqis  ETV
vector 124  DataCentricNet.host[20].net  neighbourLqis  ETV
vector 125  DataCentricNet.host[20].net  RangeLqis  ETV
vector 130  DataCentricNet.host[21].net  neighbourLqis  ETV
vector 131  DataCentricNet.host[21].net  RangeLqis  ETV
vector 136  DataCentricNet.host[22].net  neighbourLqis  ETV
vector 137  DataCentricNet.host[22].net  RangeLqis  ETV
vector 142  DataCentricNet.host[23].net  neighbourLqis  ETV
vector 143  DataCentricNet.host[23].net  RangeLqis  ETV
vector 148  DataCentricNet.host[24].net  neighbourLqis  ETV
vector 149  DataCentricNet.host[24].net  RangeLqis  ETV
vector 154  DataCentricNet.host[25].net  neighbourLqis  ETV
vector 155  DataCentricNet.host[25].net  RangeLqis  ETV
vector 160  DataCentricNet.host[26].net  neighbourLqis  ETV
vector 161  DataCentricNet.host[26].net  RangeLqis  ETV
vector 166  DataCentricNet.host[27].net  neighbourLqis  ETV
vector 167  DataCentricNet.host[27].net  RangeLqis  ETV
vector 172  DataCentricNet.host[28].net  neighbourLqis  ETV
vector 173  DataCentricNet.host[28].net  RangeLqis  ETV
vector 178  DataCentricNet.host[29].net  neighbourLqis  ETV
vector 179  DataCentricNet.host[29].net  RangeLqis  ETV
vector 184  DataCentricNet.host[30].net  neighbourLqis  ETV
vector 185  DataCentricNet.host[30].net  RangeLqis  ETV
vector 190  DataCentricNet.host[31].net  neighbourLqis  ETV
vector 191  DataCentricNet.host[31].net  RangeLqis  ETV
vector 196  DataCentricNet.host[32].net  neighbourLqis  ETV
vector 197  DataCentricNet.host[32].net  RangeLqis  ETV
vector 202  DataCentricNet.host[33].net  neighbourLqis  ETV
vector 203  DataCentricNet.host[33].net  RangeLqis  ETV
vector 208  DataCentricNet.host[34].net  neighbourLqis  ETV
vector 209  DataCentricNet.host[34].net  RangeLqis  ETV
vector 214  DataCentricNet.host[35].net  neighbourLqis  ETV
vector 215  DataCentricNet.host[35].net  RangeLqis  ETV
vector 220  DataCentricNet.host[36].net  neighbourLqis  ETV
vector 221  DataCentricNet.host[36].net  RangeLqis  ETV
vector 226  DataCentricNet.host[37].net  neighbourLqis  ETV
vector 227  DataCentricNet.host[37].net  RangeLqis  ETV
vector 232  DataCentricNet.host[38].net  neighbourLqis  ETV
vector 233  DataCentricNet.host[38].net  RangeLqis  ETV
vector 238  DataCentricNet.host[39].net  neighbourLqis  ETV
vector 239  DataCentricNet.host[39].net  RangeLqis  ETV
vector 244  DataCentricNet.host[40].net  neighbourLqis  ETV
vector 245  DataCentricNet.host[40].net  RangeLqis  ETV
vector 250  DataCentricNet.host[41].net  neighbourLqis  ETV
vector 251  DataCentricNet.host[41].net  RangeLqis  ETV
vector 256  DataCentricNet.host[42].net  neighbourLqis  ETV
vector 257  DataCentricNet.host[42].net  RangeLqis  ETV
vector 262  DataCentricNet.host[43].net  neighbourLqis  ETV
vector 263  DataCentricNet.host[43].net  RangeLqis  ETV
vector 268  DataCentricNet.host[44].net  neighbourLqis  ETV
vector 269  DataCentricNet.host[44].net  RangeLqis  ETV
vector 274  DataCentricNet.host[45].net  neighbourLqis  ETV
vector 275  DataCentricNet.host[45].net  RangeLqis  ETV
vector 280  DataCentricNet.host[46].net  neighbourLqis  ETV
vector 281  DataCentricNet.host[46].net  RangeLqis  ETV
vector 286  DataCentricNet.host[47].net  neighbourLqis  ETV
vector 287  DataCentricNet.host[47].net  RangeLqis  ETV
vector 292  DataCentricNet.host[48].net  neighbourLqis  ETV
vector 293  DataCentricNet.host[48].net  RangeLqis  ETV
vector 298  DataCentricNet.host[49].net  neighbourLqis  ETV
vector 299  DataCentricNet.host[49].net  RangeLqis  ETV
vector 304  DataCentricNet.host[50].net  neighbourLqis  ETV
vector 305  DataCentricNet.host[50].net  RangeLqis  ETV
vector 310  DataCentricNet.host[51].net  neighbourLqis  ETV
vector 311  DataCentricNet.host[51].net  RangeLqis  ETV
vector 316  DataCentricNet.host[52].net  neighbourLqis  ETV
vector 317  DataCentricNet.host[52].net  RangeLqis  ETV
vector 322  DataCentricNet.host[53].net  neighbourLqis  ETV
vector 323  DataCentricNet.host[53].net  RangeLqis  ETV
vector 328  DataCentricNet.host[54].net  neighbourLqis  ETV
vector 329  DataCentricNet.host[54].net  RangeLqis  ETV
vector 334  DataCentricNet.host[55].net  neighbourLqis  ETV
vector 335  DataCentricNet.host[55].net  RangeLqis  ETV
vector 340  DataCentricNet.host[56].net  neighbourLqis  ETV
vector 341  DataCentricNet.host[56].net  RangeLqis  ETV
vector 346  DataCentricNet.host[57].net  neighbourLqis  ETV
vector 347  DataCentricNet.host[57].net  RangeLqis  ETV
vector 352  DataCentricNet.host[58].net  neighbourLqis  ETV
vector 353  DataCentricNet.host[58].net  RangeLqis  ETV
vector 358  DataCentricNet.host[59].net  neighbourLqis  ETV
vector 359  DataCentricNet.host[59].net  RangeLqis  ETV
vector 364  DataCentricNet.host[60].net  neighbourLqis  ETV
vector 365  DataCentricNet.host[60].net  RangeLqis  ETV
vector 370  DataCentricNet.host[61].net  neighbourLqis  ETV
vector 371  DataCentricNet.host[61].net  RangeLqis  ETV
vector 376  DataCentricNet.host[62].net  neighbourLqis  ETV
vector 377  DataCentricNet.host[62].net  RangeLqis  ETV
vector 382  DataCentricNet.host[63].net  neighbourLqis  ETV
vector 383  DataCentricNet.host[63].net  RangeLqis  ETV
vector 388  DataCentricNet.host[64].net  neighbourLqis  ETV
vector 389  DataCentricNet.host[64].net  RangeLqis  ETV
vector 394  DataCentricNet.host[65].net  neighbourLqis  ETV
vector 395  DataCentricNet.host[65].net  RangeLqis  ETV
vector 400  DataCentricNet.host[66].net  neighbourLqis  ETV
vector 401  DataCentricNet.host[66].net  RangeLqis  ETV
vector 406  DataCentricNet.host[67].net  neighbourLqis  ETV
vector 407  DataCentricNet.host[67].net  RangeLqis  ETV
vector 412  DataCentricNet.host[68].net  neighbourLqis  ETV
vector 413  DataCentricNet.host[68].net  RangeLqis  ETV
vector 418  DataCentricNet.host[69].net  neighbourLqis  ETV
vector 419  DataCentricNet.host[69].net  RangeLqis  ETV
vector 424  DataCentricNet.host[70].net  neighbourLqis  ETV
vector 425  DataCentricNet.host[70].net  RangeLqis  ETV
vector 430  DataCentricNet.host[71].net  neighbourLqis  ETV
vector 431  DataCentricNet.host[71].net  RangeLqis  ETV
vector 436  DataCentricNet.host[72].net  neighbourLqis  ETV
vector 437  DataCentricNet.host[72].net  RangeLqis  ETV
vector 442  DataCentricNet.host[73].net  neighbourLqis  ETV
vector 443  DataCentricNet.host[73].net  RangeLqis  ETV
vector 448  DataCentricNet.host[74].net  neighbourLqis  ETV
vector 449  DataCentricNet.host[74].net  RangeLqis  ETV
vector 454  DataCentricNet.host[75].net  neighbourLqis  ETV
vector 455  DataCentricNet.host[75].net  RangeLqis  ETV
vector 460  DataCentricNet.host[76].net  neighbourLqis  ETV
vector 461  DataCentricNet.host[76].net  RangeLqis  ETV
vector 466  DataCentricNet.host[77].net  neighbourLqis  ETV
vector 467  DataCentricNet.host[77].net  RangeLqis  ETV
vector 472  DataCentricNet.host[78].net  neighbourLqis  ETV
vector 473  DataCentricNet.host[78].net  RangeLqis  ETV
vector 478  DataCentricNet.host[79].net  neighbourLqis  ETV
vector 479  DataCentricNet.host[79].net  RangeLqis  ETV
vector 484  DataCentricNet.host[80].net  neighbourLqis  ETV
vector 485  DataCentricNet.host[80].net  RangeLqis  ETV
vector 490  DataCentricNet.host[81].net  neighbourLqis  ETV
vector 491  DataCentricNet.host[81].net  RangeLqis  ETV
vector 496  DataCentricNet.host[82].net  neighbourLqis  ETV
vector 497  DataCentricNet.host[82].net  RangeLqis  ETV
vector 502  DataCentricNet.host[83].net  neighbourLqis  ETV
vector 503  DataCentricNet.host[83].net  RangeLqis  ETV
vector 508  DataCentricNet.host[84].net  neighbourLqis  ETV
vector 509  DataCentricNet.host[84].net  RangeLqis  ETV
vector 514  DataCentricNet.host[85].net  neighbourLqis  ETV
vector 515  DataCentricNet.host[85].net  RangeLqis  ETV
vector 520  DataCentricNet.host[86].net  neighbourLqis  ETV
vector 521  DataCentricNet.host[86].net  RangeLqis  ETV
vector 526  DataCentricNet.host[87].net  neighbourLqis  ETV
vector 527  DataCentricNet.host[87].net  RangeLqis  ETV
vector 532  DataCentricNet.host[88].net  neighbourLqis  ETV
vector 533  DataCentricNet.host[88].net  RangeLqis  ETV
vector 538  DataCentricNet.host[89].net  neighbourLqis  ETV
vector 539  DataCentricNet.host[89].net  RangeLqis  ETV
vector 544  DataCentricNet.host[90].net  neighbourLqis  ETV
vector 545  DataCentricNet.host[90].net  RangeLqis  ETV
vector 550  DataCentricNet.host[91].net  neighbourLqis  ETV
vector 551  DataCentricNet.host[91].net  RangeLqis  ETV
vector 556  DataCentricNet.host[92].net  neighbourLqis  ETV
vector 557  DataCentricNet.host[92].net  RangeLqis  ETV
vector 562  DataCentricNet.host[93].net  neighbourLqis  ETV
vector 563  DataCentricNet.host[93].net  RangeLqis  ETV
vector 568  DataCentricNet.host[94].net  neighbourLqis  ETV
vector 569  DataCentricNet.host[94].net  RangeLqis  ETV
vector 574  DataCentricNet.host[95].net  neighbourLqis  ETV
vector 575  DataCentricNet.host[95].net  RangeLqis  ETV
vector 580  DataCentricNet.host[96].net  neighbourLqis  ETV
vector 581  DataCentricNet.host[96].net  RangeLqis  ETV
vector 586  DataCentricNet.host[97].net  neighbourLqis  ETV
vector 587  DataCentricNet.host[97].net  RangeLqis  ETV
vector 592  DataCentricNet.host[98].net  neighbourLqis  ETV
vector 593  DataCentricNet.host[98].net  RangeLqis  ETV
vector 598  DataCentricNet.host[99].net  neighbourLqis  ETV
vector 599  DataCentricNet.host[99].net  RangeLqis  ETV
4	370677	0	151
4	370677	1	164
4	370677	2	141
4	370677	3	133
4	370677	4	85
4	370677	5	159
4	370677	6	113
4	370677	7	159
4	370677	8	141
4	370677	9	169
5	370677	0	10
5	370677	0	20
5	370677	0	30
5	370677	0	40
5	370677	0	50
5	370677	0	60
5	370677	0	70
5	370677	0	80
5	370677	1	90
5	370677	1	100
5	370677	1	110
5	370677	2	120
5	370677	2	130
5	370677	3	140
5	370677	5	150
5	370677	8	160
5	370677	10	170
5	370677	10	180
5	370677	10	190
5	370677	10	200
5	370677	10	210
5	370677	10	220
5	370677	10	230
5	370677	10	240
5	370677	10	250
5	370677	10	260
10	370677	0	87
10	370677	1	148
10	370677	2	74
10	370677	3	128
10	370677	4	143
10	370677	5	123
10	370677	6	161
10	370677	7	169
10	370677	8	156
10	370677	9	125
11	370677	0	10
11	370677	0	20
11	370677	0	30
11	370677	0	40
11	370677	0	50
11	370677	0	60
11	370677	0	70
11	370677	1	80
11	370677	2	90
11	370677	2	100
11	370677	2	110
11	370677	2	120
11	370677	5	130
11	370677	5	140
11	370677	7	150
11	370677	8	160
11	370677	10	170
11	370677	10	180
11	370677	10	190
11	370677	10	200
11	370677	10	210
11	370677	10	220
11	370677	10	230
11	370677	10	240
11	370677	10	250
11	370677	10	260
16	370677	0	136
16	370677	1	34
16	370677	2	151
16	370677	3	156
16	370677	4	166
16	370677	5	169
16	370677	6	125
16	370677	7	90
16	370677	8	108
16	370677	9	169
17	370677	0	10
17	370677	0	20
17	370677	0	30
17	370677	1	40
17	370677	1	50
17	370677	1	60
17	370677	1	70
17	370677	1	80
17	370677	2	90
17	370677	2	100
17	370677	3	110
17	370677	3	120
17	370677	4	130
17	370677	5	140
17	370677	5	150
17	370677	7	160
17	370677	10	170
17	370677	10	180
17	370677	10	190
17	370677	10	200
17	370677	10	210
17	370677	10	220
17	370677	10	230
17	370677	10	240
17	370677	10	250
17	370677	10	260
22	370677	0	166
22	370677	1	156
22	370677	2	51
22	370677	3	148
22	370677	4	138
22	370677	5	151
22	370677	6	143
22	370677	7	143
22	370677	8	161
22	370677	9	146
23	370677	0	10
23	370677	0	20
23	370677	0	30
23	370677	0	40
23	370677	0	50
23	370677	1	60
23	370677	1	70
23	370677	1	80
23	370677	1	90
23	370677	1	100
23	370677	1	110
23	370677	1	120
23	370677	1	130
23	370677	2	140
23	370677	6	150
23	370677	8	160
23	370677	10	170
23	370677	10	180
23	370677	10	190
23	370677	10	200
23	370677	10	210
23	370677	10	220
23	370677	10	230
23	370677	10	240
23	370677	10	250
23	370677	10	260
28	370677	0	151
28	370677	1	169
28	370677	2	138
28	370677	3	146
28	370677	4	148
28	370677	5	123
28	370677	6	143
28	370677	7	166
28	370677	8	161
28	370677	9	120
29	370677	0	10
29	370677	0	20
29	370677	0	30
29	370677	0	40
29	370677	0	50
29	370677	0	60
29	370677	0	70
29	370677	0	80
29	370677	0	90
29	370677	0	100
29	370677	0	110
29	370677	1	120
29	370677	2	130
29	370677	3	140
29	370677	6	150
29	370677	7	160
29	370677	10	170
29	370677	10	180
29	370677	10	190
29	370677	10	200
29	370677	10	210
29	370677	10	220
29	370677	10	230
29	370677	10	240
29	370677	10	250
29	370677	10	260
34	370677	0	13
34	370677	1	72
34	370677	2	166
34	370677	3	13
34	370677	4	13
35	370677	0	10
35	370677	3	20
35	370677	3	30
35	370677	3	40
35	370677	3	50
35	370677	3	60
35	370677	3	70
35	370677	4	80
35	370677	4	90
35	370677	4	100
35	370677	4	110
35	370677	4	120
35	370677	4	130
35	370677	4	140
35	370677	4	150
35	370677	4	160
35	370677	5	170
35	370677	5	180
35	370677	5	190
35	370677	5	200
35	370677	5	210
35	370677	5	220
35	370677	5	230
35	370677	5	240
35	370677	5	250
35	370677	5	260
40	370677	0	95
40	370677	1	125
40	370677	2	151
40	370677	3	143
40	370677	4	125
40	370677	5	131
40	370677	6	166
40	370677	7	164
40	370677	8	161
40	370677	9	169
41	370677	0	10
41	370677	0	20
41	370677	0	30
41	370677	0	40
41	370677	0	50
41	370677	0	60
41	370677	0	70
41	370677	0	80
41	370677	0	90
41	370677	1	100
41	370677	1	110
41	370677	1	120
41	370677	3	130
41	370677	4	140
41	370677	5	150
41	370677	6	160
41	370677	10	170
41	370677	10	180
41	370677	10	190
41	370677	10	200
41	370677	10	210
41	370677	10	220
41	370677	10	230
41	370677	10	240
41	370677	10	250
41	370677	10	260
46	370677	0	143
46	370677	1	128
46	370677	2	100
46	370677	3	148
46	370677	4	159
46	370677	5	161
46	370677	6	143
46	370677	7	146
46	370677	8	148
46	370677	9	1
47	370677	1	10
47	370677	1	20
47	370677	1	30
47	370677	1	40
47	370677	1	50
47	370677	1	60
47	370677	1	70
47	370677	1	80
47	370677	1	90
47	370677	2	100
47	370677	2	110
47	370677	2	120
47	370677	3	130
47	370677	3	140
47	370677	8	150
47	370677	9	160
47	370677	10	170
47	370677	10	180
47	370677	10	190
47	370677	10	200
47	370677	10	210
47	370677	10	220
47	370677	10	230
47	370677	10	240
47	370677	10	250
47	370677	10	260
52	370677	0	161
52	370677	1	169
52	370677	2	77
52	370677	3	136
52	370677	4	159
52	370677	5	92
52	370677	6	115
52	370677	7	141
52	370677	8	115
52	370677	9	146
53	370677	0	10
53	370677	0	20
53	370677	0	30
53	370677	0	40
53	370677	0	50
53	370677	0	60
53	370677	0	70
53	370677	1	80
53	370677	1	90
53	370677	2	100
53	370677	2	110
53	370677	4	120
53	370677	4	130
53	370677	5	140
53	370677	7	150
53	370677	8	160
53	370677	10	170
53	370677	10	180
53	370677	10	190
53	370677	10	200
53	370677	10	210
53	370677	10	220
53	370677	10	230
53	370677	10	240
53	370677	10	250
53	370677	10	260
58	370677	0	123
58	370677	1	159
58	370677	2	156
58	370677	3	159
58	370677	4	169
58	370677	5	115
58	370677	6	141
58	370677	7	74
58	370677	8	125
58	370677	9	161
59	370677	0	10
59	370677	0	20
59	370677	0	30
59	370677	0	40
59	370677	0	50
59	370677	0	60
59	370677	0	70
59	370677	1	80
59	370677	1	90
59	370677	1	100
59	370677	1	110
59	370677	2	120
59	370677	4	130
59	370677	4	140
59	370677	5	150
59	370677	8	160
59	370677	10	170
59	370677	10	180
59	370677	10	190
59	370677	10	200
59	370677	10	210
59	370677	10	220
59	370677	10	230
59	370677	10	240
59	370677	10	250
59	370677	10	260
64	370677	0	166
64	370677	1	69
64	370677	2	159
64	370677	3	123
64	370677	4	90
64	370677	5	151
64	370677	6	161
64	370677	7	161
64	370677	8	138
64	370677	9	161
65	370677	0	10
65	370677	0	20
65	370677	0	30
65	370677	0	40
65	370677	0	50
65	370677	0	60
65	370677	1	70
65	370677	1	80
65	370677	2	90
65	370677	2	100
65	370677	2	110
65	370677	2	120
65	370677	3	130
65	370677	4	140
65	370677	4	150
65	370677	6	160
65	370677	10	170
65	370677	10	180
65	370677	10	190
65	370677	10	200
65	370677	10	210
65	370677	10	220
65	370677	10	230
65	370677	10	240
65	370677	10	250
65	370677	10	260
70	370677	0	151
70	370677	1	110
70	370677	2	146
70	370677	3	143
70	370677	4	151
70	370677	5	102
70	370677	6	166
70	370677	7	131
70	370677	8	128
70	370677	9	141
71	370677	0	10
71	370677	0	20
71	370677	0	30
71	370677	0	40
71	370677	0	50
71	370677	0	60
71	370677	0	70
71	370677	0	80
71	370677	0	90
71	370677	0	100
71	370677	2	110
71	370677	2	120
71	370677	3	130
71	370677	4	140
71	370677	7	150
71	370677	9	160
71	370677	10	170
71	370677	10	180
71	370677	10	190
71	370677	10	200
71	370677	10	210
71	370677	10	220
71	370677	10	230
71	370677	10	240
71	370677	10	250
71	370677	10	260
76	370677	0	156
76	370677	1	169
76	370677	2	97
76	370677	3	138
76	370677	4	97
76	370677	5	141
76	370677	6	153
76	370677	7	138
76	370677	8	120
76	370677	9	143
77	370677	0	10
77	370677	0	20
77	370677	0	30
77	370677	0	40
77	370677	0	50
77	370677	0	60
77	370677	0	70
77	370677	0	80
77	370677	0	90
77	370677	2	100
77	370677	2	110
77	370677	3	120
77	370677	3	130
77	370677	5	140
77	370677	7	150
77	370677	9	160
77	370677	10	170
77	370677	10	180
77	370677	10	190
77	370677	10	200
77	370677	10	210
77	370677	10	220
77	370677	10	230
77	370677	10	240
77	370677	10	250
77	370677	10	260
82	370677	0	169
82	370677	1	138
82	370677	2	169
82	370677	3	151
82	370677	4	161
82	370677	5	164
82	370677	6	143
82	370677	7	146
82	370677	8	23
82	370677	9	123
83	370677	0	10
83	370677	0	20
83	370677	1	30
83	370677	1	40
83	370677	1	50
83	370677	1	60
83	370677	1	70
83	370677	1	80
83	370677	1	90
83	370677	1	100
83	370677	1	110
83	370677	1	120
83	370677	2	130
83	370677	3	140
83	370677	5	150
83	370677	6	160
83	370677	10	170
83	370677	10	180
83	370677	10	190
83	370677	10	200
83	370677	10	210
83	370677	10	220
83	370677	10	230
83	370677	10	240
83	370677	10	250
83	370677	10	260
88	370677	0	151
88	370677	1	153
88	370677	2	146
88	370677	3	159
88	370677	4	136
88	370677	5	153
88	370677	6	100
88	370677	7	141
88	370677	8	128
88	370677	9	143
89	370677	0	10
89	370677	0	20
89	370677	0	30
89	370677	0	40
89	370677	0	50
89	370677	0	60
89	370677	0	70
89	370677	0	80
89	370677	0	90
89	370677	1	100
89	370677	1	110
89	370677	1	120
89	370677	2	130
89	370677	3	140
89	370677	6	150
89	370677	10	160
89	370677	10	170
89	370677	10	180
89	370677	10	190
89	370677	10	200
89	370677	10	210
89	370677	10	220
89	370677	10	230
89	370677	10	240
89	370677	10	250
89	370677	10	260
94	370677	0	131
94	370677	1	102
94	370677	2	133
94	370677	3	161
94	370677	4	156
94	370677	5	159
94	370677	6	133
94	370677	7	113
94	370677	8	136
94	370677	9	166
95	370677	0	10
95	370677	0	20
95	370677	0	30
95	370677	0	40
95	370677	0	50
95	370677	0	60
95	370677	0	70
95	370677	0	80
95	370677	0	90
95	370677	0	100
95	370677	1	110
95	370677	2	120
95	370677	2	130
95	370677	6	140
95	370677	6	150
95	370677	8	160
95	370677	10	170
95	370677	10	180
95	370677	10	190
95	370677	10	200
95	370677	10	210
95	370677	10	220
95	370677	10	230
95	370677	10	240
95	370677	10	250
95	370677	10	260
100	370677	0	153
100	370677	1	108
100	370677	2	113
100	370677	3	164
100	370677	4	77
100	370677	5	159
100	370677	6	166
100	370677	7	169
100	370677	8	146
100	370677	9	141
101	370677	0	10
101	370677	0	20
101	370677	0	30
101	370677	0	40
101	370677	0	50
101	370677	0	60
101	370677	0	70
101	370677	1	80
101	370677	1	90
101	370677	1	100
101	370677	2	110
101	370677	3	120
101	370677	3	130
101	370677	3	140
101	370677	5	150
101	370677	7	160
101	370677	10	170
101	370677	10	180
101	370677	10	190
101	370677	10	200
101	370677	10	210
101	370677	10	220
101	370677	10	230
101	370677	10	240
101	370677	10	250
101	370677	10	260
106	370677	0	133
106	370677	1	169
106	370677	2	95
106	370677	3	156
106	370677	4	164
106	370677	5	115
106	370677	6	164
106	370677	7	159
106	370677	8	169
106	370677	9	118
107	370677	0	10
107	370677	0	20
107	370677	0	30
107	370677	0	40
107	370677	0	50
107	370677	0	60
107	370677	0	70
107	370677	0	80
107	370677	0	90
107	370677	1	100
107	370677	1	110
107	370677	3	120
107	370677	3	130
107	370677	4	140
107	370677	4	150
107	370677	6	160
107	370677	10	170
107	370677	10	180
107	370677	10	190
107	370677	10	200
107	370677	10	210
107	370677	10	220
107	370677	10	230
107	370677	10	240
107	370677	10	250
107	370677	10	260
112	370677	0	141
112	370677	1	113
112	370677	2	125
112	370677	3	159
112	370677	4	100
112	370677	5	169
112	370677	6	153
112	370677	7	164
112	370677	8	82
112	370677	9	151
113	370677	0	10
113	370677	0	20
113	370677	0	30
113	370677	0	40
113	370677	0	50
113	370677	0	60
113	370677	0	70
113	370677	0	80
113	370677	1	90
113	370677	2	100
113	370677	2	110
113	370677	3	120
113	370677	4	130
113	370677	4	140
113	370677	5	150
113	370677	8	160
113	370677	10	170
113	370677	10	180
113	370677	10	190
113	370677	10	200
113	370677	10	210
113	370677	10	220
113	370677	10	230
113	370677	10	240
113	370677	10	250
113	370677	10	260
118	370677	0	153
118	370677	1	143
118	370677	2	125
118	370677	3	161
118	370677	4	164
118	370677	5	166
118	370677	6	159
118	370677	7	153
118	370677	8	161
118	370677	9	105
119	370677	0	10
119	370677	0	20
119	370677	0	30
119	370677	0	40
119	370677	0	50
119	370677	0	60
119	370677	0	70
119	370677	0	80
119	370677	0	90
119	370677	0	100
119	370677	1	110
119	370677	1	120
119	370677	2	130
119	370677	2	140
119	370677	3	150
119	370677	6	160
119	370677	10	170
119	370677	10	180
119	370677	10	190
119	370677	10	200
119	370677	10	210
119	370677	10	220
119	370677	10	230
119	370677	10	240
119	370677	10	250
119	370677	10	260
124	370677	0	164
124	370677	1	148
124	370677	2	161
124	370677	3	169
124	370677	4	1
124	370677	5	138
124	370677	6	128
124	370677	7	166
124	370677	8	138
124	370677	9	143
125	370677	1	10
125	370677	1	20
125	370677	1	30
125	370677	1	40
125	370677	1	50
125	370677	1	60
125	370677	1	70
125	370677	1	80
125	370677	1	90
125	370677	1	100
125	370677	1	110
125	370677	1	120
125	370677	2	130
125	370677	4	140
125	370677	6	150
125	370677	6	160
125	370677	10	170
125	370677	10	180
125	370677	10	190
125	370677	10	200
125	370677	10	210
125	370677	10	220
125	370677	10	230
125	370677	10	240
125	370677	10	250
125	370677	10	260
130	370677	0	138
130	370677	1	72
130	370677	2	133
130	370677	3	159
130	370677	4	153
130	370677	5	166
130	370677	6	169
130	370677	7	141
130	370677	8	169
130	370677	9	108
131	370677	0	10
131	370677	0	20
131	370677	0	30
131	370677	0	40
131	370677	0	50
131	370677	0	60
131	370677	0	70
131	370677	1	80
131	370677	1	90
131	370677	1	100
131	370677	2	110
131	370677	2	120
131	370677	2	130
131	370677	4	140
131	370677	5	150
131	370677	7	160
131	370677	10	170
131	370677	10	180
131	370677	10	190
131	370677	10	200
131	370677	10	210
131	370677	10	220
131	370677	10	230
131	370677	10	240
131	370677	10	250
131	370677	10	260
136	370677	0	136
136	370677	1	166
136	370677	2	102
136	370677	3	159
136	370677	4	1
136	370677	5	161
136	370677	6	120
136	370677	7	161
136	370677	8	169
136	370677	9	120
137	370677	1	10
137	370677	1	20
137	370677	1	30
137	370677	1	40
137	370677	1	50
137	370677	1	60
137	370677	1	70
137	370677	1	80
137	370677	1	90
137	370677	1	100
137	370677	2	110
137	370677	4	120
137	370677	4	130
137	370677	5	140
137	370677	5	150
137	370677	6	160
137	370677	10	170
137	370677	10	180
137	370677	10	190
137	370677	10	200
137	370677	10	210
137	370677	10	220
137	370677	10	230
137	370677	10	240
137	370677	10	250
137	370677	10	260
142	370677	0	164
142	370677	1	123
142	370677	2	153
142	370677	3	1
142	370677	4	146
142	370677	5	169
142	370677	6	62
142	370677	7	110
142	370677	8	164
142	370677	9	13
142	370677	10	164
143	370677	1	10
143	370677	2	20
143	370677	2	30
143	370677	2	40
143	370677	2	50
143	370677	2	60
143	370677	3	70
143	370677	3	80
143	370677	3	90
143	370677	3	100
143	370677	4	110
143	370677	4	120
143	370677	5	130
143	370677	5	140
143	370677	6	150
143	370677	7	160
143	370677	11	170
143	370677	11	180
143	370677	11	190
143	370677	11	200
143	370677	11	210
143	370677	11	220
143	370677	11	230
143	370677	11	240
143	370677	11	250
143	370677	11	260
148	370677	0	100
148	370677	1	151
148	370677	2	125
148	370677	3	159
148	370677	4	136
148	370677	5	95
148	370677	6	146
148	370677	7	102
148	370677	8	80
148	370677	9	164
149	370677	0	10
149	370677	0	20
149	370677	0	30
149	370677	0	40
149	370677	0	50
149	370677	0	60
149	370677	0	70
149	370677	1	80
149	370677	1	90
149	370677	3	100
149	370677	4	110
149	370677	4	120
149	370677	5	130
149	370677	6	140
149	370677	7	150
149	370677	9	160
149	370677	10	170
149	370677	10	180
149	370677	10	190
149	370677	10	200
149	370677	10	210
149	370677	10	220
149	370677	10	230
149	370677	10	240
149	370677	10	250
149	370677	10	260
154	370677	0	169
154	370677	1	164
154	370677	2	110
154	370677	3	166
154	370677	4	141
154	370677	5	49
154	370677	6	164
154	370677	7	133
154	370677	8	125
154	370677	9	133
155	370677	0	10
155	370677	0	20
155	370677	0	30
155	370677	0	40
155	370677	1	50
155	370677	1	60
155	370677	1	70
155	370677	1	80
155	370677	1	90
155	370677	1	100
155	370677	2	110
155	370677	2	120
155	370677	3	130
155	370677	5	140
155	370677	6	150
155	370677	6	160
155	370677	10	170
155	370677	10	180
155	370677	10	190
155	370677	10	200
155	370677	10	210
155	370677	10	220
155	370677	10	230
155	370677	10	240
155	370677	10	250
155	370677	10	260
160	370677	0	133
160	370677	1	1
160	370677	2	133
160	370677	3	151
160	370677	4	169
160	370677	5	146
160	370677	6	166
160	370677	7	85
160	370677	8	153
160	370677	9	125
161	370677	1	10
161	370677	1	20
161	370677	1	30
161	370677	1	40
161	370677	1	50
161	370677	1	60
161	370677	1	70
161	370677	1	80
161	370677	2	90
161	370677	2	100
161	370677	2	110
161	370677	2	120
161	370677	3	130
161	370677	5	140
161	370677	6	150
161	370677	8	160
161	370677	10	170
161	370677	10	180
161	370677	10	190
161	370677	10	200
161	370677	10	210
161	370677	10	220
161	370677	10	230
161	370677	10	240
161	370677	10	250
161	370677	10	260
166	370677	0	133
166	370677	1	77
166	370677	2	82
166	370677	3	141
166	370677	4	146
166	370677	5	164
166	370677	6	133
166	370677	7	156
166	370677	8	166
166	370677	9	146
167	370677	0	10
167	370677	0	20
167	370677	0	30
167	370677	0	40
167	370677	0	50
167	370677	0	60
167	370677	0	70
167	370677	1	80
167	370677	2	90
167	370677	2	100
167	370677	2	110
167	370677	2	120
167	370677	2	130
167	370677	4	140
167	370677	7	150
167	370677	8	160
167	370677	10	170
167	370677	10	180
167	370677	10	190
167	370677	10	200
167	370677	10	210
167	370677	10	220
167	370677	10	230
167	370677	10	240
167	370677	10	250
167	370677	10	260
172	370677	0	153
172	370677	1	125
172	370677	2	123
172	370677	3	169
172	370677	4	115
172	370677	5	120
172	370677	6	146
172	370677	7	125
172	370677	8	141
172	370677	9	153
173	370677	0	10
173	370677	0	20
173	370677	0	30
173	370677	0	40
173	370677	0	50
173	370677	0	60
173	370677	0	70
173	370677	0	80
173	370677	0	90
173	370677	0	100
173	370677	0	110
173	370677	2	120
173	370677	5	130
173	370677	5	140
173	370677	7	150
173	370677	9	160
173	370677	10	170
173	370677	10	180
173	370677	10	190
173	370677	10	200
173	370677	10	210
173	370677	10	220
173	370677	10	230
173	370677	10	240
173	370677	10	250
173	370677	10	260
178	370677	0	113
178	370677	1	34
178	370677	2	146
178	370677	3	143
178	370677	4	100
178	370677	5	166
178	370677	6	146
178	370677	7	29
178	370677	8	164
178	370677	9	153
179	370677	0	10
179	370677	0	20
179	370677	1	30
179	370677	2	40
179	370677	2	50
179	370677	2	60
179	370677	2	70
179	370677	2	80
179	370677	2	90
179	370677	3	100
179	370677	3	110
179	370677	4	120
179	370677	4	130
179	370677	4	140