file 256492 1353499159                                          
version 2
run AODVScenario_1f-54-20121121-11:58:45-3116
attr configname AODVScenario_1f
attr datetime 20121121-11:58:45
attr experiment AODVScenario_1f
attr inifile AODV.ini
attr iterationvars $numNodes=104
attr iterationvars2 "$numNodes=104, $repetition=0"
attr measurement $numNodes=104
attr network csma802154net
attr numNodes 104
attr processid 3116
attr repetition 0
attr replication #0
attr resultdir results
attr runnumber 54
attr seedset 54

vector 427  csma802154net.dataCentricNetworkMan  RREQPacketFrequency  ETV
vector 428  csma802154net.dataCentricNetworkMan  RERRPacketFrequency  ETV
vector 429  csma802154net.dataCentricNetworkMan  DiscoveryPacketFrequency  ETV
vector 430  csma802154net.dataCentricNetworkMan  RegisterPacketFrequency  ETV
vector 431  csma802154net.dataCentricNetworkMan  RReplyPacketFrequency  ETV
vector 432  csma802154net.dataCentricNetworkMan  AODVDataPacketFrequency  ETV
vector 439  csma802154net.dataCentricNetworkMan  pendingRegistrationVector  ETV
vector 438  csma802154net.dataCentricNetworkMan  pendingRREQVector  ETV
vector 436  csma802154net.dataCentricNetworkMan  PendingDataPacketsVector  ETV
vector 446  csma802154net.fixhost[6].udpApp  "End-to-end delay"  ETV
vector 424  csma802154net.dataCentricNetworkMan  dataPacketE2EDelay  ETV
vector 451  csma802154net.fixhost[11].udpApp  "End-to-end delay"  ETV
vector 449  csma802154net.fixhost[9].udpApp  "End-to-end delay"  ETV
vector 450  csma802154net.fixhost[10].udpApp  "End-to-end delay"  ETV
vector 453  csma802154net.fixhost[13].udpApp  "End-to-end delay"  ETV
vector 443  csma802154net.fixhost[3].udpApp  "End-to-end delay"  ETV
vector 457  csma802154net.fixhost[17].udpApp  "End-to-end delay"  ETV
vector 445  csma802154net.fixhost[5].udpApp  "End-to-end delay"  ETV
vector 448  csma802154net.fixhost[8].udpApp  "End-to-end delay"  ETV
vector 452  csma802154net.fixhost[12].udpApp  "End-to-end delay"  ETV
424	1946 5906 1034724 2786590 70.009636020401 7273.052732203452 130 0.007396020401 0.089468143391 4.331252660354 0.19514835521222
427	7852 38298 834 2786835 1.005 7273.062652188189 1336 0 131 2413 175811
428	46150 38251 834 2786835 1.005 7273.062652188189 1336 0 0 0 0
429	84401 38251 834 2786835 1.005 7273.062652188189 1336 0 0 0 0
430	122652 38251 834 2786835 1.005 7273.062652188189 1336 0 1 12 12
431	160903 38268 834 2786835 1.005 7273.062652188189 1336 0 108 1648 78134
432	199171 38266 834 2786835 1.005 7273.062652188189 1336 0 108 1349 70085
436	237437 11218 1033858 2786590 70 7273.052732203452 364 0 3 390 702
438	248655 1410 43369 1009135 43.50001 54.669812314518 50 0 1 16 16
439	250065 521 43364 990464 43.5 54.576797426849 22 0 3 37 75
443	250586 577 1043575 2778788 72.03632407836 7272.02071607836 13 0.020716078359 0.03632407836 0.318229018673 0.0079819572804374
445	251163 589 1047070 2784374 73.022956069231 7273.028636135722 13 0.020716069231 0.038556135723 0.362589298947 0.0106208627966
446	251752 583 1034724 2768920 70.009636020401 7270.0077160204 13 0.007396020401 0.011236020401 0.11790826521 0.0010823461388375
448	252335 593 1048941 2785494 73.034684107134 7273.040364171172 13 0.031804107134 0.069164171173 0.638277843462 0.033437781963318
449	252928 591 1038607 2772278 71.022884073672 7271.019436073671 13 0.019436073671 0.02416407367 0.288860957728 0.0064399883694949
450	253519 595 1039135 2775883 71.027396105404 7271.087836105403 13 0.027396105404 0.087836105403 0.569461370242 0.029523763133789
451	254114 595 1035224 2769419 70.015036039908 7270.012156039906 13 0.011836039908 0.015676039908 0.1765885188 0.00241667478247
452	254709 593 1051125 2786590 73.069700143393 7273.052732203452 13 0.041044143392 0.089468143391 0.851190282986 0.058364610329874
453	255302 595 1040132 2775329 71.034004132386 7271.085060132385 13 0.030484132386 0.085060132385 0.575205721009 0.02975011231312
457	255897 595 1044111 2779818 72.040764106408 7272.027396106407 13 0.023556106408 0.054844106408 0.432941383297 0.015530258104283
