version 2
run AODVScenario_1f-24-20121115-23:58:56-3124
attr configname AODVScenario_1f
attr datetime 20121115-23:58:56
attr experiment AODVScenario_1f
attr inifile AODV.ini
attr iterationvars $numNodes=74
attr iterationvars2 "$numNodes=74, $repetition=0"
attr measurement $numNodes=74
attr network csma802154net
attr numNodes 74
attr processid 3124
attr repetition 0
attr replication #0
attr resultdir results
attr runnumber 24
attr seedset 24

vector 307  csma802154net.dataCentricNetworkMan  RREQPacketFrequency  ETV
vector 308  csma802154net.dataCentricNetworkMan  RERRPacketFrequency  ETV
vector 309  csma802154net.dataCentricNetworkMan  DiscoveryPacketFrequency  ETV
vector 310  csma802154net.dataCentricNetworkMan  RegisterPacketFrequency  ETV
vector 311  csma802154net.dataCentricNetworkMan  RReplyPacketFrequency  ETV
vector 312  csma802154net.dataCentricNetworkMan  AODVDataPacketFrequency  ETV
vector 319  csma802154net.dataCentricNetworkMan  pendingRegistrationVector  ETV
vector 318  csma802154net.dataCentricNetworkMan  pendingRREQVector  ETV
vector 316  csma802154net.dataCentricNetworkMan  PendingDataPacketsVector  ETV
vector 322  csma802154net.fixhost[2].udpApp  "End-to-end delay"  ETV
vector 304  csma802154net.dataCentricNetworkMan  dataPacketE2EDelay  ETV
vector 328  csma802154net.fixhost[8].udpApp  "End-to-end delay"  ETV
vector 321  csma802154net.fixhost[1].udpApp  "End-to-end delay"  ETV
vector 324  csma802154net.fixhost[4].udpApp  "End-to-end delay"  ETV
vector 327  csma802154net.fixhost[7].udpApp  "End-to-end delay"  ETV
vector 332  csma802154net.fixhost[12].udpApp  "End-to-end delay"  ETV
vector 343  csma802154net.fixhost[23].udpApp  "End-to-end delay"  ETV
vector 347  csma802154net.fixhost[27].udpApp  "End-to-end delay"  ETV
vector 330  csma802154net.fixhost[10].udpApp  "End-to-end delay"  ETV
vector 337  csma802154net.fixhost[17].udpApp  "End-to-end delay"  ETV
vector 313  csma802154net.dataCentricNetworkMan  AODVDataLineBreakVector  ETV
304	617193	70.031836114705	0.031836114705
304	618783	70.059532122835	0.059532122835
304	619350	70.084140078208	0.084140078208
304	620676	71.014076031228	0.014076031228
304	621446	71.069996068327	0.069996068327
304	623186	72.016916047477	0.016916047477
304	623976	72.023844071497	0.023844071497
304	624762	72.03244409905	0.03244409905
304	625693	73.007396023042	0.007396023042
304	626069	73.012796042288	0.012796042288
304	719085	670.02483607821	0.02483607821
304	720282	670.034324114707	0.034324114707
304	720974	670.040012122836	0.040012122836
304	722308	671.011516031228	0.011516031228
304	723077	671.020396068327	0.020396068327
304	724817	672.015956047476	0.015956047476
304	725607	672.022244071496	0.022244071496
304	726392	672.028924099049	0.028924099049
304	727323	673.008676023042	0.008676023042
304	727699	673.013756042288	0.013756042288
304	821022	1270.026436078209	0.026436078209
304	821992	1270.034324114707	0.034324114707
304	822780	1270.056332122836	0.056332122836
304	824114	1271.012476031228	0.012476031228
304	824883	1271.021356068327	0.021356068327
304	826623	1272.016916047476	0.016916047476
304	827966	1272.030524099047	0.030524099047
304	828734	1272.052252071492	0.052252071492
304	829685	1273.008996023042	0.008996023042
304	830061	1273.013756042288	0.013756042288
304	923537	1870.024836078209	0.024836078209
304	924434	1870.034324122834	0.034324122834
304	925639	1870.053844114705	0.053844114705
304	926957	1871.015356031228	0.015356031228
304	927725	1871.024236068327	0.024236068327
304	929863	1872.021324047477	0.021324047477
304	930266	1872.024164071497	0.024164071497
304	931048	1872.029884099049	0.029884099049
304	931980	1873.010596023042	0.010596023042
304	932355	1873.015356042288	0.015356042288
304	1025292	2470.02515607821	0.02515607821
304	1026481	2470.038804122836	0.038804122836
304	1027295	2470.048260114707	0.048260114707
304	1028612	2471.012156031228	0.012156031228
304	1029381	2471.021036068327	0.021036068327
304	1031121	2472.019156047476	0.019156047476
304	1031916	2472.029924071496	0.029924071496
304	1032702	2472.039732099049	0.039732099049
304	1033633	2473.008356023042	0.008356023042
304	1034009	2473.013116042288	0.013116042288
304	1127916	3070.029564078209	0.029564078209
304	1128317	3070.031444122835	0.031444122835
304	1129886	3070.077132114705	0.077132114705
304	1134659	3071.013436031228	0.013436031228
304	1135428	3071.023916068327	0.023916068327
304	1137168	3072.017236047477	0.017236047477
304	1137962	3072.028004071497	0.028004071497
304	1138745	3072.03564409905	0.03564409905
304	1139676	3073.007716023042	0.007716023042
304	1140052	3073.013116042288	0.013116042288
304	1232684	3670.020076061349	0.020076061349
304	1290088	3670.349740697047	0.349740697047
304	1295309	3671.011836030169	0.011836030169
304	1296078	3671.021356067268	0.021356067268
304	1297834	3672.015636053799	0.015636053799
304	1299003	3672.031804105372	0.031804105372
304	1299392	3672.041444077819	0.041444077819
304	1340597	3673.008996023042	0.008996023042
304	1341527	3673.013436042288	0.013436042288
304	1360968	3673.20171649253	3.20171649253
304	1454831	4270.025796089365	0.025796089365
304	1455879	4270.033724078991	0.033724078991
304	1521143	4270.44503426208	0.44503426208
304	1522465	4271.01183603126	0.01183603126
304	1523233	4271.019756068358	0.019756068358
304	1525523	4272.022604047913	0.022604047913
304	1526092	4272.046244071933	0.046244071933
304	1526878	4272.057972099483	0.057972099483
304	1528197	4273.013756023618	0.013756023618
304	1528573	4273.018196042864	0.018196042864
304	1622522	4870.039124092935	0.039124092935
304	1623719	4870.064900103307	0.064900103307
304	1624138	4870.102276076178	0.102276076178
304	1625460	4871.01215603126	0.01215603126
304	1626229	4871.021036068359	0.021036068359
304	1628752	4872.024164071934	0.024164071934
304	1629154	4872.027076099487	0.027076099487
304	1629543	4872.045180047914	0.045180047914
304	1630875	4873.01407602362	0.01407602362
304	1631251	4873.019476042866	0.019476042866
304	1724245	5470.026116076177	0.026116076177
304	1725622	5470.036884092935	0.036884092935
304	1726411	5470.066252103307	0.066252103307
304	1727741	5471.01279603126	0.01279603126
304	1728510	5471.021356068359	0.021356068359
304	1730638	5472.021356071933	0.021356071933
304	1731423	5472.029884099485	0.029884099485
304	1731811	5472.034196047913	0.034196047913
304	1733143	5473.01471602362	0.01471602362
304	1733519	5473.019796042865	0.019796042865
304	1827402	6070.031484076176	0.031484076176
304	1827824	6070.041292092934	0.041292092934
304	1828612	6070.053844103306	0.053844103306
304	1829942	6071.01183603126	0.01183603126
304	1830711	6071.021996068359	0.021996068359
304	1832847	6072.020684047914	0.020684047914
304	1833251	6072.025764071934	0.025764071934
304	1834610	6072.058612099487	0.058612099487
304	1835929	6073.01087602362	0.01087602362
304	1836304	6073.014996042866	0.014996042866
304	1929396	6670.026116076178	0.026116076178
304	1930795	6670.035604092935	0.035604092935
304	1931191	6670.038804103307	0.038804103307
304	1932521	6671.012796031259	0.012796031259
304	1933290	6671.020716068358	0.020716068358
304	1935384	6672.018196047914	0.018196047914
304	1935784	6672.020076071934	0.020076071934
304	1936570	6672.030524099487	0.030524099487
304	1937889	6673.01151602362	0.01151602362
304	1938264	6673.014996042866	0.014996042866
304	2031747	7270.032156092935	0.032156092935
304	2032635	7270.041972076178	0.041972076178
304	2033432	7270.061132103307	0.061132103307
304	2034763	7271.015676031259	0.015676031259
304	2035531	7271.023596068358	0.023596068358
304	2037269	7272.018516047913	0.018516047913
304	2038060	7272.029604071933	0.029604071933
304	2038846	7272.036604099486	0.036604099486
304	2040165	7273.011516023619	0.011516023619
304	2040541	7273.016596042864	0.016596042864
307	597	1.005	1
307	976	1.01	32
307	1946	1.015	55
307	3185	1.02	61
307	4767	1.025	87
307	6224	1.03	50
307	7503	1.035	54
307	8762	1.04	68
307	9720	1.045	32
307	10761	1.05	84
307	11286	1.055	23
307	12007	1.06	66
307	12247	1.065	18
307	12416	1.07	0
307	13022	1.075107534541	63
307	13113	1.080107534541	0
307	13788	1.085832298299	57
307	14030	1.090832298299	18
307	14492	1.095832298299	29
307	14784	1.100832298299	28
307	15078	1.105832298299	29
307	15079	1.110832298299	0
307	15411	1.123025801381	36
307	15415	1.128025801381	0
307	15679	1.135243539515	23
307	15680	1.140243539515	0
307	22119	43.505	1
307	22203	43.51	0
307	23631	43.515498330889	33
307	24830	43.520498330889	0
307	25817	43.525498330889	0
307	26701	43.530498330889	0
307	27353	43.535498330889	0
307	28335	43.540498330889	0
307	29197	43.545498330889	0
307	30172	43.550498330889	0
307	30774	43.555498330889	0
307	32258	43.562662943211	0
307	33195	43.567662943211	0
307	34338	43.573238107863	0
307	35230	43.578238107863	0
307	35952	43.583238107863	0
307	36977	43.588238107863	0
307	38391	43.598600737022	0
307	39257	43.603600737022	0
307	41006	43.615294044145	0
307	42119	43.620294044145	0
307	43175	43.625294044145	0
307	44243	43.630294044145	0
307	45154	43.635294044145	0
307	46127	43.643673786791	0
307	46995	43.648673786791	0
307	47714	43.653673786791	0
307	48597	43.658673786791	0
307	49317	43.663673786791	0
307	49853	43.668673786791	0
307	50599	43.673673786791	0
307	51246	43.678673786791	0
307	53648	43.695495628419	0
307	54350	43.700495628419	0
307	54951	43.705495628419	0
307	55419	43.710495628419	0
307	56062	43.715495628419	0
307	56696	43.720495628419	0
307	57142	43.725495628419	0
307	58494	43.734356961157	0
307	59567	43.739356961157	0
307	60179	43.744356961157	0
307	61092	43.749356961157	0
307	61636	43.754356961157	0
307	62681	43.759484668824	0
307	63554	43.764484668824	0
307	64295	43.769484668824	0
307	65245	43.774484668824	0
307	65957	43.779484668824	0
307	68972	43.803926947747	0
307	69418	43.808926947747	0
307	70041	43.814200132402	0
307	70582	43.819200132402	0
307	71816	43.828802710708	0
307	72269	43.833802710708	0
307	72534	43.838802710708	0
307	73066	43.843802710708	0
307	73331	43.848802710708	0
307	74239	43.859470971617	0
307	74778	43.864470971617	0
307	75315	43.871715910167	0
307	76110	43.876715910167	0
307	76111	43.881715910167	0
307	76819	43.900765906021	0
307	77178	43.905765906021	0
307	77979	43.927350537163	0
307	78259	43.932350537163	0
307	78260	43.937350537163	0
307	79003	43.951744127359	0
307	79007	43.956744127359	0
307	79163	44.505	1
307	79253	44.51	0
307	80355	44.515473855312	28
307	81367	44.520473855312	0
307	82346	44.525473855312	0
307	83545	44.530473855312	0
307	83945	44.535473855312	0
307	84820	44.540473855312	0
307	86029	44.545473855312	0
307	86679	44.550473855312	0
307	87814	44.555473855312	0
307	88451	44.560473855312	0
307	89010	44.565473855312	0
307	90111	44.570473855312	0
307	90740	44.575473855312	0
307	92211	44.582635866909	0
307	93111	44.587635866909	0
307	94101	44.592635866909	0
307	95077	44.598880523824	0
307	95800	44.603880523824	0
307	96166	44.608880523824	0
307	97693	44.620639983679	0
307	98256	44.625639983679	0
307	98802	44.630639983679	0
307	99610	44.635639983679	0
307	100362	44.640639983679	0
307	100970	44.645639983679	0
307	101621	44.653206811515	0
307	102089	44.658206811515	0
307	102546	44.663206811515	0
307	103654	44.669385568371	0
307	104376	44.674385568371	0
307	105326	44.679385568371	0
307	105791	44.684385568371	0
307	106176	44.689385568371	0
307	106711	44.694385568371	0
307	107283	44.70093634752	0
307	107856	44.70593634752	0
307	108319	44.71093634752	0
307	108840	44.71593634752	0
307	109721	44.72093634752	0
307	110189	44.72593634752	0
307	110569	44.73093634752	0
307	111227	44.73593634752	0
307	111778	44.74093634752	0
307	112495	44.74593634752	0
307	113286	44.75093634752	0
307	114080	44.759531391921	0
307	114424	44.764531391921	0
307	115591	44.775825902199	0
307	115880	44.780825902199	0
307	115966	44.785825902199	0
307	116909	44.798337183412	0
307	117374	44.803337183412	0
307	117813	44.808337183412	0
307	118083	44.813337183412	0
307	118454	44.818337183412	0
307	118906	44.850938453479	0
307	119194	44.855938453479	0
307	119195	44.860938453479	0
307	119351	45.505	1
307	119361	45.51	0
307	121590	45.517591523635	40
307	122803	45.522591523635	0
307	124030	45.528402718478	0
307	125217	45.533402718478	0
307	125753	45.538402718478	0
307	126658	45.543402718478	0
307	127731	45.548402718478	0
307	128802	45.553402718478	0
307	129781	45.558402718478	0
307	130960	45.563402718478	0
307	132051	45.568402718478	0
307	132543	45.573402718478	0
307	133555	45.578402718478	0
307	134213	45.583402718478	0
307	134968	45.588402718478	0
307	135690	45.593402718478	0
307	136702	45.598402718478	0
307	137616	45.603402718478	0
307	138262	45.608402718478	0
307	139699	45.615738262115	0
307	140496	45.620738262115	0
307	142383	45.633719444027	0
307	143351	45.638719444027	0
307	144690	45.647637285019	0
307	145832	45.652637285019	0
307	148116	45.665603384008	0
307	149100	45.670603384008	0
307	150269	45.675603384008	0
307	151181	45.680603384008	0
307	153769	45.698892853571	0
307	154934	45.703892853571	0
307	156487	45.714526401831	0
307	157108	45.719526401831	0
307	159011	45.730369060662	0
307	159776	45.735369060662	0
307	160413	45.740369060662	0
307	161136	45.745369060662	0
307	161846	45.750369060662	0
307	162623	45.755369060662	0
307	163645	45.760369060662	0
307	164423	45.765369060662	0
307	165536	45.772819411028	0
307	166209	45.777819411028	0
307	167037	45.782819411028	0
307	167981	45.787819411028	0
307	168708	45.792819411028	0
307	169541	45.797819411028	0
307	170182	45.802819411028	0
307	170610	45.807819411028	0
307	171048	45.812819411028	0
307	172874	45.825117019375	0
307	173618	45.830117019375	0
307	174279	45.835117019375	0
307	175263	45.843048391776	0
307	176000	45.848048391776	0
307	176479	45.853048391776	0
307	176948	45.858048391776	0
307	177425	45.863048391776	0
307	177887	45.868048391776	0
307	178700	45.877825987533	0
307	179162	45.882825987533	0
307	179403	45.887825987533	0
307	180249	45.896045861373	0
307	180717	45.901045861373	0
307	180723	45.906045861373	0
307	181919	45.915113063818	0
307	182383	45.920113063818	0
307	183022	45.925113063818	0
307	183946	45.937873086336	0
307	184132	45.942873086336	0
307	185176	45.955345070453	0
307	185264	45.960345070453	0
307	186277	45.993980266771	0
307	186278	45.998980266771	0
307	186895	46.017077803765	0
307	187182	46.022077803765	0
307	187183	46.027077803765	0
307	187555	46.043240725148	0
307	187556	46.048240725148	0
307	187941	46.078944748046	0
307	187942	46.083944748046	0
307	187949	46.505	1
307	187959	46.51	0
307	189558	46.518092591133	31
307	190368	46.523092591133	0
307	191718	46.528092591133	0
307	192693	46.533092591133	0
307	194685	46.547911645735	0
307	195429	46.552911645735	0
307	196491	46.557911645735	0
307	197770	46.564503979382	0
307	198528	46.569503979382	0
307	199167	46.574503979382	0
307	200090	46.579503979382	0
307	200691	46.584503979382	0
307	201524	46.590430820399	0
307	202737	46.595430820399	0
307	203633	46.60194551495	0
307	204525	46.60694551495	0
307	205716	46.613636341714	0
307	206737	46.618636341714	0
307	207584	46.623636341714	0
307	209436	46.637262834978	0
307	209999	46.642262834978	0
307	210846	46.647262834978	0
307	212213	46.655009273039	0
307	212868	46.660009273039	0
307	213841	46.665009273039	0
307	214935	46.674571435482	0
307	215751	46.679571435482	0
307	216210	46.684571435482	0
307	216836	46.689571435482	0
307	217414	46.694571435482	0
307	218149	46.699571435482	0
307	219228	46.707480869292	0
307	220084	46.712480869292	0
307	220942	46.719243466076	0
307	221558	46.724243466076	0
307	222397	46.733779163555	0
307	223395	46.738779163555	0
307	224146	46.743779163555	0
307	224851	46.748779163555	0
307	225117	46.753779163555	0
307	225947	46.75885765811	0
307	226570	46.76385765811	0
307	227206	46.76885765811	0
307	228005	46.77385765811	0
307	229081	46.783223061202	0
307	229741	46.788223061202	0
307	230189	46.793223061202	0
307	231165	46.798223061202	0
307	231790	46.803223061202	0
307	231974	46.808223061202	0
307	233297	46.819710150407	0
307	234019	46.824710150407	0
307	234696	46.829710150407	0
307	235135	46.834710150407	0
307	235613	46.839710150407	0
307	236007	46.844710150407	0
307	236392	46.852103999416	0
307	236773	46.857103999416	0
307	236860	46.862103999416	0
307	237137	46.867418641407	0
307	237138	46.872418641407	0
307	237584	47.505	23
307	238328	47.51	0
307	239304	47.515	0
307	240570	47.520808143595	0
307	240874	47.525808143595	0
307	241183	47.530808143595	0
307	241829	47.535808143595	0
307	242328	47.540808143595	0
307	243114	47.545808143595	0
307	243587	47.550808143595	0
307	244216	47.555808143595	0
307	246753	47.578903522142	0
307	247326	47.583903522142	0
307	248821	47.596758555576	0
307	249089	47.601758555576	0
307	250353	47.609996473171	0
307	251274	47.614996473171	0
307	252073	47.619996473171	0
307	252346	47.624996473171	0
307	254392	47.640963340994	0
307	255019	47.645963340994	0
307	256030	47.652748498069	0
307	256756	47.657748498069	0
307	257693	47.662748498069	0
307	258251	47.667748498069	0
307	259058	47.673344561739	0
307	259436	47.678344561739	0
307	259997	47.683344561739	0
307	260553	47.688344561739	0
307	261182	47.693344561739	0
307	261906	47.698344561739	0
307	262446	47.703344561739	0
307	262714	47.708344561739	0
307	264111	47.719741481156	0
307	264645	47.724741481156	0
307	265272	47.729741481156	0
307	265648	47.734741481156	0
307	265733	47.739741481156	0
307	266579	47.749227131837	0
307	266856	47.754227131837	0
307	267340	47.761897767684	0
307	267726	47.766897767684	0
307	268316	47.771897767684	0
307	269036	47.776897767684	0
307	269037	47.781897767684	0
307	269486	47.793987109578	0
307	269773	47.798987109578	0
307	269780	47.803987109578	0
307	270145	47.810903774634	0
307	270229	47.815903774634	0
307	270522	47.822298366919	0
307	270523	47.827298366919	0
307	270892	47.849223759281	0
307	270893	47.854223759281	0
307	271058	48.505	1
307	271707	48.51	39
307	273582	48.515	0
307	274874	48.52	0
307	276924	48.533827615981	0
307	277600	48.538827615981	0
307	278543	48.543827615981	0
307	280663	48.555202307682	0
307	281244	48.560202307682	0
307	282194	48.565202307682	0
307	284384	48.57730629863	0
307	285405	48.58230629863	0
307	286107	48.58730629863	0
307	287043	48.594702685941	0
307	288116	48.599702685941	0
307	288999	48.604702685941	0
307	289747	48.609702685941	0
307	291573	48.620414706328	0
307	292331	48.625414706328	0
307	293275	48.630414706328	0
307	294023	48.635414706328	0
307	294910	48.640414706328	0
307	297742	48.658644449399	0
307	298330	48.663644449399	0
307	302562	48.693072532366	0
307	303299	48.698072532366	0
307	304430	48.703836570675	0
307	305306	48.708836570675	0
307	306362	48.717050675305	0
307	307190	48.722050675305	0
307	308039	48.727050675305	0
307	308632	48.732050675305	0
307	309273	48.737050675305	0
307	309919	48.742050675305	0
307	311175	48.750096118927	0
307	312305	48.755096118927	0
307	313696	48.766063968435	0
307	314250	48.771063968435	0
307	315191	48.776063968435	0
307	316354	48.783889800116	0
307	317112	48.788889800116	0
307	317729	48.793889800116	0
307	319172	48.80478167204	0
307	319942	48.80978167204	0
307	320594	48.81478167204	0
307	321535	48.820941654513	0
307	322188	48.825941654513	0
307	322672	48.830941654513	0
307	323436	48.835941654513	0
307	324252	48.840941654513	0
307	325069	48.845941654513	0
307	325187	48.85277526734	0
307	325640	48.85777526734	0
307	326860	48.865149968435	0
307	327661	48.870149968435	0
307	328323	48.877332480751	0
307	328813	48.882332480751	0
307	329667	48.887332480751	0
307	330413	48.892332480751	0
307	331123	48.897332480751	0
307	331808	48.902332480751	0
307	332175	48.907332480751	0
307	333124	48.912332480751	0
307	333641	48.917332480751	0
307	334085	48.922332480751	0
307	334483	48.927332480751	0
307	334851	48.932332480751	0
307	335260	48.938400401629	0
307	336119	48.943400401629	0
307	336126	48.948400401629	0
307	336502	48.968563356274	0
307	336506	48.973563356274	0
307	336701	49.505	1
307	337076	49.51	30
307	338160	49.515	0
307	339768	49.52	0
307	341029	49.525	0
307	341768	49.53	0
307	342869	49.535029486566	0
307	344133	49.540029486566	0
307	344838	49.545029486566	0
307	345841	49.550029486566	0
307	346783	49.555029486566	0
307	348161	49.560029486566	0
307	349336	49.565029486566	0
307	350008	49.570029486566	0
307	350867	49.575029486566	0
307	351435	49.580029486566	0
307	353717	49.59107712971	0
307	354963	49.59607712971	0
307	355550	49.60107712971	0
307	356266	49.60607712971	0
307	358151	49.620523257168	0
307	359049	49.625523257168	0
307	360154	49.632489263563	0
307	360849	49.637489263563	0
307	361650	49.642489263563	0
307	362877	49.651437567717	0
307	364143	49.656437567717	0
307	365237	49.667797594262	0
307	365631	49.672797594262	0
307	366469	49.677797594262	0
307	367234	49.682797594262	0
307	368252	49.687797594262	0
307	369123	49.692797594262	0
307	369846	49.697797594262	0
307	370651	49.702797594262	0
307	371412	49.707797594262	0
307	372345	49.712797594262	0
307	373020	49.717797594262	0
307	373773	49.722797594262	0
307	374530	49.727797594262	0
307	375331	49.732797594262	0
307	376187	49.737797594262	0
307	376896	49.742797594262	0
307	377503	49.747797594262	0
307	378221	49.752797594262	0
307	379467	49.761240726772	0
307	380314	49.766240726772	0
307	381036	49.771240726772	0
307	381502	49.776240726772	0
307	381955	49.781240726772	0
307	382852	49.791476854333	0
307	383336	49.796476854333	0
307	383809	49.801476854333	0
307	384561	49.806476854333	0
307	384929	49.811476854333	0
307	385452	49.816476854333	0
307	386228	49.823587171421	0
307	386593	49.828587171421	0
307	386594	49.833587171421	0
307	387519	49.842574972399	0
307	387603	49.847574972399	0
307	387998	49.852630785177	0
307	388314	49.857630785177	0
307	388515	49.862630785177	0
307	389041	49.870742773799	0
307	389042	49.875742773799	0
307	389315	50.505	1
307	390150	50.51	37
307	391894	50.515	0
307	393183	50.52	0
307	394554	50.525	0
307	395231	50.53	0
307	396003	50.535	0
307	397263	50.54	0
307	397954	50.545	0
307	398926	50.55	0
307	399967	50.557581819564	0
307	401340	50.562581819564	0
307	402187	50.567581819564	0
307	407753	50.598504503696	0
307	408955	50.603504503696	0
307	409611	50.608504503696	0
307	412903	50.631772985827	0
307	413739	50.636772985827	0
307	414405	50.641772985827	0
307	416849	50.657164992136	0
307	417795	50.662164992136	0
307	418549	50.667164992136	0
307	419990	50.676375533093	0
307	420954	50.681375533093	0
307	421713	50.686375533093	0
307	422712	50.691375533093	0
307	423559	50.696375533093	0
307	424080	50.701375533093	0
307	425025	50.706375533093	0
307	426377	50.713533085762	0
307	427051	50.718533085762	0
307	427992	50.723533085762	0
307	429479	50.731567559654	0
307	430085	50.736567559654	0
307	430776	50.741567559654	0
307	431723	50.746567559654	0
307	432630	50.751567559654	0
307	433744	50.75813978509	0
307	434831	50.76313978509	0
307	436450	50.773897561707	0
307	437369	50.778897561707	0
307	438396	50.784919960169	0
307	439332	50.789919960169	0
307	440083	50.794919960169	0
307	441127	50.80151957524	0
307	441675	50.80651957524	0
307	442804	50.81484983186	0
307	443573	50.81984983186	0
307	444538	50.82484983186	0
307	445142	50.82984983186	0
307	446609	50.838805526617	0
307	447416	50.843805526617	0
307	448275	50.848805526617	0
307	449279	50.853805526617	0
307	450216	50.858805526617	0
307	450701	50.863805526617	0
307	451242	50.868805526617	0
307	452625	50.885741924967	0
307	453091	50.890741924967	0
307	453674	50.895741924967	0
307	454473	50.904131823857	0
307	454957	50.909131823857	0
307	455691	50.914640426414	0
307	455692	50.919640426414	0
307	456176	50.928329851679	0
307	456735	50.933329851679	0
307	457432	50.938510448424	0
307	457821	50.943510448424	0
307	458215	50.948510448424	0
307	458797	50.953510448424	0
307	458992	50.958510448424	0
307	459388	50.969572923608	0
307	459389	50.974572923608	0
307	460315	51.014876950341	0
307	460316	51.019876950341	0
307	460369	51.505	1
307	460702	51.51	20
307	461802	51.515	0
307	462470	51.52	0
307	463585	51.525895605918	0
307	464415	51.530895605918	0
307	465239	51.535895605918	0
307	465738	51.540895605918	0
307	466035	51.545895605918	0
307	466861	51.550895605918	0
307	467589	51.555895605918	0
307	468710	51.565179088333	0
307	469673	51.570179088333	0
307	470400	51.575179088333	0
307	471293	51.580179088333	0
307	471841	51.585179088333	0
307	472688	51.59085182484	0
307	473183	51.59585182484	0
307	474873	51.605641772657	0
307	475707	51.610641772657	0
307	476354	51.615641772657	0
307	477198	51.620641772657	0
307	477774	51.625641772657	0
307	478242	51.630641772657	0
307	478618	51.635641772657	0
307	479303	51.640641772657	0
307	479954	51.645641772657	0
307	480356	51.651871423821	0
307	481237	51.656871423821	0
307	482228	51.661871423821	0
307	483047	51.666871423821	0
307	483252	51.671871423821	0
307	483992	51.678646574409	0
307	484083	51.683646574409	0
307	484774	51.688794436734	0
307	485268	51.693794436734	0
307	485935	51.699300203948	0
307	486333	51.704300203948	0
307	486964	51.709300203948	0
307	487574	51.714300203948	0
307	487753	51.719300203948	0
307	488043	51.724408847592	0
307	488048	51.729408847592	0
307	488494	51.73718559517	0
307	488871	51.74218559517	0
307	489170	51.74718559517	0
307	489171	51.75218559517	0
307	489364	52.505	1
307	489748	52.51	24
307	491138	52.515	0
307	492268	52.52	0
307	492808	52.52592125948	0
307	493324	52.53092125948	0
307	493703	52.53592125948	0
307	497014	52.56412971412	0
307	497913	52.56912971412	0
307	498543	52.57412971412	0
307	499109	52.57912971412	0
307	499659	52.58412971412	0
307	500361	52.58912971412	0
307	501568	52.597509537009	0
307	502059	52.602509537009	0
307	502614	52.607509537009	0
307	503507	52.612509537009	0
307	504291	52.617509537009	0
307	504925	52.622509537009	0
307	505660	52.62921455239	0
307	506415	52.63421455239	0
307	507044	52.63921455239	0
307	507891	52.6469095354	0
307	508379	52.6519095354	0
307	509693	52.661976916051	0
307	510067	52.666976916051	0
307	510850	52.674481734033	0
307	511308	52.679481734033	0
307	512237	52.686911125498	0
307	512933	52.691911125498	0
307	513504	52.702213659917	0
307	514292	52.707213659917	0
307	515214	52.712213659917	0
307	515951	52.717213659917	0
307	516494	52.722213659917	0
307	517076	52.727943703257	0
307	517618	52.732943703257	0
307	518551	52.737943703257	0
307	518953	52.742943703257	0
307	519645	52.747943703257	0
307	520289	52.752943703257	0
307	520752	52.757943703257	0
307	521316	52.762943703257	0
307	521714	52.767943703257	0
307	522181	52.772943703257	0
307	522868	52.777943703257	0
307	523250	52.782943703257	0
307	523725	52.787943703257	0
307	524584	52.795641923166	0
307	524585	52.800641923166	0
307	526270	52.837540568635	0
307	526271	52.842540568635	0
307	526636	52.856000314636	0
307	526637	52.861000314636	0
307	527015	52.91954434179	0
307	527016	52.92454434179	0
307	527203	53.505	1
307	527572	53.51	22
307	528798	53.515	0
307	529600	53.52	0
307	530439	53.525	0
307	530822	53.53	0
307	531398	53.535	0
307	532239	53.54	0
307	532823	53.545	0
307	533389	53.55	0
307	534325	53.556027725794	0
307	535648	53.561027725794	0
307	536473	53.566027725794	0
307	537275	53.571027725794	0
307	537759	53.576027725794	0
307	538318	53.581027725794	0
307	539387	53.589467873171	0
307	540230	53.594467873171	0
307	540704	53.599467873171	0
307	540976	53.604467873171	0
307	542157	53.611851222569	0
307	543006	53.616851222569	0
307	543386	53.621851222569	0
307	543754	53.626851222569	0
307	544580	53.638059288613	0
307	544966	53.643059288613	0
307	545678	53.648059288613	0
307	546384	53.653059288613	0
307	546983	53.658059288613	0
307	548215	53.669468281103	0
307	548887	53.674468281103	0
307	549535	53.679468281103	0
307	550105	53.684468281103	0
307	550965	53.69107629265	0
307	551350	53.69607629265	0
307	551355	53.70107629265	0
307	552224	53.709795566588	0
307	552608	53.714795566588	0
307	552908	53.719795566588	0
307	553282	53.724795566588	0
307	553283	53.729795566588	0
307	553659	53.755324707154	0
307	553660	53.760324707154	0
307	554034	53.830068720142	0
307	554035	53.835068720142	0
307	554239	54.505	1
307	554809	54.51	38
307	556304	54.515	0
307	557578	54.52	0
307	558951	54.527331527979	0
307	559540	54.532331527979	0
307	560452	54.537331527979	0
307	561580	54.542331527979	0
307	563078	54.547331527979	0
307	563741	54.552331527979	0
307	564521	54.557331527979	0
307	565298	54.562331527979	0
307	565995	54.567331527979	0
307	567302	54.572331527979	0
307	568056	54.577331527979	0
307	569271	54.586201917752	0
307	569939	54.591201917752	0
307	571707	54.599060946235	0
307	572680	54.604060946235	0
307	573499	54.609060946235	0
307	574265	54.614060946235	0
307	575304	54.619060946235	0
307	575988	54.624060946235	0
307	576864	54.629060946235	0
307	577754	54.634060946235	0
307	578453	54.639060946235	0
307	579233	54.644060946235	0
307	580334	54.652006013387	0
307	581239	54.657006013387	0
307	581971	54.662725426115	0
307	582917	54.667725426115	0
307	584169	54.675629610328	0
307	585104	54.680629610328	0
307	585769	54.685629610328	0
307	587249	54.696435472872	0
307	588110	54.701435472872	0
307	588973	54.706435472872	0
307	589435	54.711435472872	0
307	590549	54.719230887147	0
307	591030	54.724230887147	0
307	591521	54.729230887147	0
307	592614	54.737317359201	0
307	593523	54.742317359201	0
307	594300	54.747317359201	0
307	595437	54.755555924673	0
307	596047	54.760555924673	0
307	596617	54.765555924673	0
307	597224	54.770555924673	0
307	598201	54.777955581994	0
307	599162	54.782955581994	0
307	599671	54.787955581994	0
307	600951	54.796379356825	0
307	601403	54.801379356825	0
307	602371	54.80644608644	0
307	602744	54.81144608644	0
307	603140	54.81644608644	0
307	603743	54.82144608644	0
307	604326	54.82644608644	0
307	606118	54.844001067729	0
307	606669	54.849001067729	0
307	607411	54.854001067729	0
307	608962	54.866929381419	0
307	609051	54.871929381419	0
307	609728	54.877361286107	0
307	610479	54.882361286107	0
307	610569	54.887361286107	0
307	610885	54.893909898123	0
307	610886	54.898909898123	0
307	611354	54.932784408598	0
307	611658	54.937784408598	0
307	611659	54.942784408598	0
307	614555	70.00501	0
307	615058	70.01001	0
307	615142	70.01501	0
307	615546	70.020686037062	0
307	616238	70.025686037062	0
307	617074	70.030686037062	0
307	617384	70.035686037062	0
307	617385	70.040686037062	0
307	618940	70.059772109096	0