version 2
run AODVScenario_1f-8-20121115-23:53:29-444
attr configname AODVScenario_1f
attr datetime 20121115-23:53:29
attr experiment AODVScenario_1f
attr inifile AODV.ini
attr iterationvars $numNodes=58
attr iterationvars2 "$numNodes=58, $repetition=0"
attr measurement $numNodes=58
attr network csma802154net
attr numNodes 58
attr processid 444
attr repetition 0
attr replication #0
attr resultdir results
attr runnumber 8
attr seedset 8

vector 243  csma802154net.dataCentricNetworkMan  RREQPacketFrequency  ETV
vector 244  csma802154net.dataCentricNetworkMan  RERRPacketFrequency  ETV
vector 245  csma802154net.dataCentricNetworkMan  DiscoveryPacketFrequency  ETV
vector 246  csma802154net.dataCentricNetworkMan  RegisterPacketFrequency  ETV
vector 247  csma802154net.dataCentricNetworkMan  RReplyPacketFrequency  ETV
vector 248  csma802154net.dataCentricNetworkMan  AODVDataPacketFrequency  ETV
vector 255  csma802154net.dataCentricNetworkMan  pendingRegistrationVector  ETV
vector 254  csma802154net.dataCentricNetworkMan  pendingRREQVector  ETV
vector 252  csma802154net.dataCentricNetworkMan  PendingDataPacketsVector  ETV
vector 258  csma802154net.fixhost[2].udpApp  "End-to-end delay"  ETV
vector 240  csma802154net.dataCentricNetworkMan  dataPacketE2EDelay  ETV
vector 263  csma802154net.fixhost[7].udpApp  "End-to-end delay"  ETV
vector 267  csma802154net.fixhost[11].udpApp  "End-to-end delay"  ETV
vector 261  csma802154net.fixhost[5].udpApp  "End-to-end delay"  ETV
vector 265  csma802154net.fixhost[9].udpApp  "End-to-end delay"  ETV
vector 269  csma802154net.fixhost[13].udpApp  "End-to-end delay"  ETV
vector 266  csma802154net.fixhost[10].udpApp  "End-to-end delay"  ETV
vector 272  csma802154net.fixhost[16].udpApp  "End-to-end delay"  ETV
vector 273  csma802154net.fixhost[17].udpApp  "End-to-end delay"  ETV
vector 262  csma802154net.fixhost[6].udpApp  "End-to-end delay"  ETV
vector 264  csma802154net.fixhost[8].udpApp  "End-to-end delay"  ETV
vector 274  csma802154net.fixhost[18].udpApp  "End-to-end delay"  ETV
240	297946	70.034516048335	0.034516048335
240	298579	70.063524083803	0.063524083803
240	299186	70.073012098791	0.073012098791
240	299962	71.010596013691	0.010596013691
240	300262	71.014396027837	0.014396027837
240	300572	71.018836036728	0.018836036728
240	302430	72.024876066017	0.024876066017
240	304006	72.0628041045	0.0628041045
240	304307	72.065892135289	0.065892135289
240	306045	73.022924050145	0.022924050145
240	306669	73.029284072653	0.029284072653
240	306992	73.04051609449	0.04051609449
240	379262	670.016916048336	0.016916048336
240	379886	670.026084083804	0.026084083804
240	380493	670.032764098794	0.032764098794
240	381268	671.008356013692	0.008356013692
240	381569	671.011836027838	0.011836027838
240	381879	671.016596036729	0.016596036729
240	383936	672.021604066018	0.021604066018
240	385201	672.054412104501	0.054412104501
240	386116	672.063900135289	0.063900135289
240	387532	673.024276050145	0.024276050145
240	388153	673.030636072655	0.030636072655
240	388790	673.038844094491	0.038844094491
240	462008	1270.028004083803	0.028004083803
240	462315	1270.032452048336	0.032452048336
240	462615	1270.034684098794	0.034684098794
240	463390	1271.009316013692	0.009316013692
240	463691	1271.014076027838	0.014076027838
240	464001	1271.017876036729	0.017876036729
240	466060	1272.024804066018	0.024804066018
240	466704	1272.032724104501	0.032724104501
240	467624	1272.051492135288	0.051492135288
240	469363	1273.024204050145	0.024204050145
240	469994	1273.030244072654	0.030244072654
240	470312	1273.03276409449	0.03276409449
240	543246	1870.021676083804	0.021676083804
240	543553	1870.025156098794	0.025156098794
240	543872	1870.027332048336	0.027332048336
240	544628	1871.006756013691	0.006756013691
240	544929	1871.010556027837	0.010556027837
240	545239	1871.015636036728	0.015636036728
240	546972	1872.018476066016	0.018476066016
240	548453	1872.032476104498	0.032476104498
240	548834	1872.037556135288	0.037556135288
240	550251	1873.018516050145	0.018516050145
240	550882	1873.033124072654	0.033124072654
240	551520	1873.04357209449	0.04357209449
240	623921	2470.016276048336	0.016276048336
240	624863	2470.048732083803	0.048732083803
240	625167	2470.054452098792	0.054452098792
240	625942	2471.007076013691	0.007076013691
240	626243	2471.011836027837	0.011836027837
240	626553	2471.016596036728	0.016596036728
240	629533	2472.032436135289	0.032436135289
240	629998	2472.0356041045	0.0356041045
240	630613	2472.059860066017	0.059860066017
240	632166	2473.020436050144	0.020436050144
240	632801	2473.049764072654	0.049764072654
240	633439	2473.06053209449	0.06053209449
240	705842	3070.016916048336	0.016916048336
240	707136	3070.075540083803	0.075540083803
240	707505	3070.100140098794	0.100140098794
240	708280	3071.008996013692	0.008996013692
240	708581	3071.013756027838	0.013756027838
240	708891	3071.017876036729	0.017876036729
240	710626	3072.020716066018	0.020716066018
240	711897	3072.034644104501	0.034644104501
240	712503	3072.04029213529	0.04029213529
240	713920	3073.020116050145	0.020116050145
240	714546	3073.027364072655	0.027364072655
240	715183	3073.03628409449	0.03628409449
240	787644	3670.018516048336	0.018516048336
240	788581	3670.050724083804	0.050724083804
240	788879	3670.052604098794	0.052604098794
240	789654	3671.006756013692	0.006756013692
240	789955	3671.010236027838	0.010236027838
240	790264	3671.014356036729	0.014356036729
240	792122	3672.021676066017	0.021676066017
240	793386	3672.052564104499	0.052564104499
240	793993	3672.059884135289	0.059884135289
240	795729	3673.018124050145	0.018124050145
240	796356	3673.023524072655	0.023524072655
240	796679	3673.02732409449	0.02732409449
240	868952	4270.015636048335	0.015636048335
240	869573	4270.022244083802	0.022244083802
240	870186	4270.031732098792	0.031732098792
240	870961	4271.008036013692	0.008036013692
240	871262	4271.011836027838	0.011836027838
240	871572	4271.015316036728	0.015316036728
240	874555	4272.0318361045	0.0318361045
240	875013	4272.036180066015	0.036180066015
240	875628	4272.057644135286	0.057644135286
240	877428	4273.021644050143	0.021644050143
240	877804	4273.026084072654	0.026084072654
240	878444	4273.053884094489	0.053884094489
240	950714	4870.017556048336	0.017556048336
240	951335	4870.025444083804	0.025444083804
240	951947	4870.033404098794	0.033404098794
240	952722	4871.009316013692	0.009316013692
240	953023	4871.013116027838	0.013116027838
240	953333	4871.017876036729	0.017876036729
240	956304	4872.0308761045	0.0308761045
240	956605	4872.035316135289	0.035316135289
240	956921	4872.039916066017	0.039916066017
240	958474	4873.016596050145	0.016596050145
240	959423	4873.048484072655	0.048484072655
240	959746	4873.05445209449	0.05445209449
240	1032394	5470.020684048335	0.020684048335
240	1032700	5470.022636083802	0.022636083802
240	1033309	5470.029564098793	0.029564098793
240	1034085	5471.012196013691	0.012196013691
240	1034386	5471.017596027837	0.017596027837
240	1034695	5471.021076036728	0.021076036728
240	1036553	5472.021676066017	0.021676066017
240	1037865	5472.053844104499	0.053844104499
240	1038404	5472.059244135287	0.059244135287
240	1039945	5473.014676050145	0.014676050145
240	1040579	5473.043044072655	0.043044072655
240	1041218	5473.055412094491	0.055412094491
240	1113488	6070.019796048334	0.019796048334
240	1114109	6070.026724083803	0.026724083803
240	1114721	6070.034364098793	0.034364098793
240	1115496	6071.007396013692	0.007396013692
240	1115797	6071.012156027838	0.012156027838
240	1116107	6071.015956036729	0.015956036729
240	1118166	6072.025124066017	0.025124066017
240	1119110	6072.032476104499	0.032476104499
240	1119715	6072.037804135288	0.037804135288
240	1121132	6073.021076050144	0.021076050144
240	1121761	6073.030244072654	0.030244072654
240	1122393	6073.03596409449	0.03596409449
240	1194796	6670.017876048336	0.017876048336
240	1196379	6670.099788083804	0.099788083804
240	1196748	6670.125028098793	0.125028098793
240	1197523	6671.008996013691	0.008996013691
240	1197824	6671.013116027836	0.013116027836
240	1198134	6671.018516036727	0.018516036727
240	1199992	6672.022956066016	0.022956066016
240	1200957	6672.054164104498	0.054164104498
240	1201876	6672.065572135286	0.065572135286
240	1203612	6673.023596072655	0.023596072655
240	1203939	6673.027652050144	0.027652050144
240	1204569	6673.036852094491	0.036852094491
240	1277221	7270.029036083804	0.029036083804
240	1277967	7270.037244098794	0.037244098794
240	1278595	7270.056772048336	0.056772048336
240	1279351	7271.008356013692	0.008356013692
240	1279652	7271.012476027838	0.012476027838
240	1279962	7271.016596036729	0.016596036729
240	1282332	7272.028572066016	0.028572066016
240	1283092	7272.035956135288	0.035956135288
240	1283727	7272.059604104499	0.059604104499
240	1285593	7273.016596050145	0.016596050145
240	1286227	7273.043684072655	0.043684072655
240	1286865	7273.051892094491	0.051892094491
243	457	1.005	1
243	467	1.01	0
243	937	1.017889371903	51
243	1807	1.022889371903	50
243	2826	1.027889371903	61
243	3914	1.032889371903	39
243	4945	1.037889371903	41
243	5862	1.042889371903	27
243	6506	1.047889371903	28
243	7289	1.052889371903	45
243	7867	1.057889371903	31
243	8245	1.062889371903	41
243	8556	1.067889371903	11
243	8839	1.072889371903	35
243	9335	1.077889371903	26
243	9403	1.082889371903	0
243	9672	1.088517074818	16
243	10113	1.093517074818	42
243	10114	1.098517074818	0
243	10344	1.118020777749	22
243	10345	1.123020777749	0
243	15386	43.505	1
243	15460	43.51	0
243	16161	43.516726447945	15
243	16724	43.521726447945	0
243	17239	43.526726447945	0
243	17456	43.531726447945	0
243	17968	43.536726447945	0
243	18664	43.542100834089	0
243	19029	43.547100834089	0
243	19520	43.552100834089	0
243	19726	43.557100834089	0
243	20356	43.563875488743	0
243	20766	43.568875488743	0
243	21053	43.573875488743	0
243	21797	43.580400145422	0
243	22135	43.585400145422	0
243	22626	43.590400145422	0
243	23033	43.595400145422	0
243	23506	43.600400145422	0
243	23991	43.605400145422	0
243	24323	43.610400145422	0
243	24676	43.615837923544	0
243	24752	43.620837923544	0
243	25221	43.625931643617	0
243	25770	43.630931643617	0
243	26250	43.635931643617	0
243	26600	43.640931643617	0
243	27364	43.648287920022	0
243	27773	43.653287920022	0
243	28037	43.658287920022	0
243	29343	43.68032078512	0
243	30136	43.68532078512	0
243	30421	43.69032078512	0
243	30695	43.69532078512	0
243	30914	43.70032078512	0
243	31116	43.70532078512	0
243	31741	43.714345182538	0
243	32220	43.719345182538	0
243	32497	43.724345182538	0
243	32767	43.729345182538	0
243	32891	44.505	1
243	32898	44.51	0
243	33914	44.518587421138	16
243	34562	44.523587421138	0
243	35067	44.528587421138	0
243	35559	44.533587421138	0
243	35921	44.538587421138	0
243	36406	44.543587421138	0
243	36985	44.550705949962	0
243	37343	44.555705949962	0
243	37556	44.560705949962	0
243	37918	44.565705949962	0
243	38603	44.570705949962	0
243	39105	44.575705949962	0
243	39636	44.580705949962	0
243	39904	44.585705949962	0
243	39978	44.590705949962	0
243	40573	44.596804188623	0
243	41066	44.601804188623	0
243	41405	44.606804188623	0
243	41832	44.613063384776	0
243	42112	44.618063384776	0
243	42328	44.623369972233	0
243	42543	44.628369972233	0
243	43240	44.635199366189	0
243	43675	44.640199366189	0
243	43891	44.645199366189	0
243	44318	44.652793711229	0
243	44729	44.657793711229	0
243	45575	44.677838919515	0
243	45868	44.682838919515	0
243	46364	44.687838919515	0
243	46714	44.692838919515	0
243	47561	44.7024894498	0
243	47565	44.7074894498	0
243	48142	44.716398710723	0
243	48753	44.721398710723	0
243	49031	44.726398710723	0
243	49245	44.731398710723	0
243	49246	44.736398710723	0
243	49376	45.505	1
243	49686	45.51	29
243	50709	45.515	0
243	51716	45.52	0
243	52660	45.526538673894	0
243	53144	45.531538673894	0
243	53978	45.538004794435	0
243	54703	45.543004794435	0
243	55736	45.549843017669	0
243	56367	45.554843017669	0
243	56818	45.561988108788	0
243	57375	45.566988108788	0
243	58260	45.574252794435	0
243	59236	45.579252794435	0
243	59881	45.584252794435	0
243	60581	45.589252794435	0
243	61114	45.594252794435	0
243	62563	45.601726042753	0
243	62990	45.606726042753	0
243	63455	45.611726042753	0
243	64157	45.616726042753	0
243	65709	45.628034848399	0
243	66218	45.633034848399	0
243	67496	45.643730158086	0
243	68314	45.648730158086	0
243	69249	45.657149466617	0
243	69733	45.662149466617	0
243	70438	45.66881463103	0
243	71018	45.67381463103	0
243	71881	45.67881463103	0
243	72109	45.68381463103	0
243	72998	45.689015142176	0
243	73446	45.694015142176	0
243	73994	45.699015142176	0
243	74611	45.704015142176	0
243	75241	45.709015142176	0
243	76001	45.714015142176	0
243	76593	45.719015142176	0
243	77097	45.724015142176	0
243	77794	45.729015142176	0
243	78568	45.734015142176	0
243	79418	45.739015142176	0
243	79735	45.744015142176	0
243	80153	45.749015142176	0
243	80650	45.754015142176	0
243	81240	45.759015142176	0
243	81908	45.764015142176	0
243	82477	45.769015142176	0
243	82868	45.774015142176	0
243	83451	45.782706612003	0
243	83519	45.787706612003	0
243	84186	45.798725003369	0
243	84793	45.803725003369	0
243	84939	45.808725003369	0
243	85235	45.813754518181	0
243	85518	45.818754518181	0
243	85746	45.825192863533	0
243	85747	45.830192863533	0
243	86050	45.842636499238	0
243	86051	45.847636499238	0
243	86347	45.911762157949	0
243	86348	45.916762157949	0
243	86481	46.505	1
243	86789	46.51	14
243	87552	46.515	0
243	88272	46.52	0
243	88776	46.525	0
243	89219	46.53	0
243	89662	46.535	0
243	90091	46.54	0
243	90309	46.545	0
243	90835	46.550173173104	0
243	91258	46.555173173104	0
243	91605	46.560173173104	0
243	91896	46.565173173104	0
243	92260	46.570173173104	0
243	92608	46.575173173104	0
243	93121	46.580173173104	0
243	93408	46.585173173104	0
243	93409	46.590173173104	0
243	93839	46.601697889057	0
243	93846	46.606697889057	0
243	94414	46.613548540919	0
243	94766	46.618548540919	0
243	95114	46.623548540919	0
243	95118	46.628548540919	0
243	95468	46.636440827341	0
243	95682	46.641440827341	0
243	95970	46.646440827341	0
243	96542	46.659454522553	0
243	96543	46.664454522553	0
243	97119	46.673309365866	0
243	97123	46.678309365866	0
243	97477	46.690358542207	0
243	97701	46.695358542207	0
243	97702	46.700358542207	0
243	97826	47.505	1
243	97900	47.51	0
243	98814	47.515737263082	23
243	99727	47.520737263082	0
243	100485	47.527503667341	0
243	100878	47.532503667341	0
243	101438	47.537503667341	0
243	102021	47.542503667341	0
243	102821	47.547503667341	0
243	103334	47.552503667341	0
243	103711	47.557503667341	0
243	104029	47.562503667341	0
243	104605	47.567503667341	0
243	105203	47.572503667341	0
243	105929	47.577503667341	0
243	106362	47.582503667341	0
243	106804	47.587503667341	0
243	107418	47.592503667341	0
243	108173	47.597503667341	0
243	108572	47.602503667341	0
243	109159	47.607503667341	0
243	109891	47.614874805804	0
243	109960	47.619874805804	0
243	110927	47.628498829729	0
243	111303	47.633498829729	0
243	111809	47.638498829729	0
243	112110	47.643498829729	0
243	112179	47.648498829729	0
243	112699	47.653595364536	0
243	112998	47.658595364536	0
243	113372	47.663595364536	0
243	113711	47.668595364536	0
243	114011	47.677321588315	0
243	114302	47.682321588315	0
243	114594	47.687321588315	0
243	114889	47.692321588315	0
243	115483	47.702888853295	0
243	115484	47.707888853295	0
243	115986	47.716742584177	0
243	116340	47.721742584177	0
243	116341	47.726742584177	0
243	116649	47.740232910157	0
243	116931	47.745232910157	0
243	117373	47.772696594002	0
243	117374	47.777696594002	0
243	117677	47.797714925592	0
243	117678	47.802714925592	0
243	117802	48.505	1
243	117876	48.51	0
243	118812	48.515727612258	22
243	119752	48.520727612258	0
243	120510	48.527211129597	0
243	121171	48.532211129597	0
243	121627	48.537211129597	0
243	122227	48.542211129597	0
243	122748	48.547211129597	0
243	123330	48.552211129597	0
243	123718	48.557211129597	0
243	124320	48.562211129597	0
243	124905	48.567211129597	0
243	125485	48.572211129597	0
243	125909	48.577211129597	0
243	126558	48.586729338296	0
243	127151	48.591729338296	0
243	127887	48.596729338296	0
243	128341	48.601729338296	0
243	128849	48.606729338296	0
243	129278	48.611729338296	0
243	130097	48.619374996225	0
243	130525	48.624374996225	0
243	130918	48.630063823916	0
243	131436	48.635063823916	0
243	131806	48.640063823916	0
243	132910	48.651599426934	0
243	133291	48.656599426934	0
243	133439	48.661599426934	0
243	134389	48.674255452302	0
243	134624	48.679255452302	0
243	135076	48.684255452302	0
243	135435	48.689255452302	0
243	136025	48.696685354848	0
243	136557	48.701685354848	0
243	136917	48.706685354848	0
243	137439	48.711685354848	0
243	137733	48.716685354848	0
243	138156	48.721685354848	0
243	139217	48.754543013989	0
243	139428	48.759543013989	0
243	139738	48.764991025489	0
243	140258	48.769991025489	0
243	141145	48.809863040652	0
243	141148	48.814863040652	0
243	141149	48.819863040652	0
243	141288	49.505	1
243	141544	49.51	21
243	142474	49.515	0
243	143311	49.52	0
243	143945	49.525452475992	0
243	144615	49.530452475992	0
243	145336	49.535452475992	0
243	146016	49.540452475992	0
243	146655	49.545452475992	0
243	147167	49.550452475992	0
243	148082	49.559417352626	0
243	148751	49.564417352626	0
243	149401	49.569417352626	0
243	151747	49.585620829977	0
243	152110	49.590620829977	0
243	152851	49.595620829977	0
243	153402	49.600620829977	0
243	154313	49.605620829977	0
243	154763	49.610620829977	0
243	155420	49.615620829977	0
243	156017	49.620620829977	0
243	156552	49.625620829977	0
243	157165	49.630620829977	0
243	158125	49.635620829977	0
243	158922	49.640620829977	0
243	159702	49.645620829977	0
243	160168	49.650620829977	0
243	160484	49.655620829977	0
243	161563	49.66477631583	0
243	162152	49.66977631583	0
243	162750	49.675375190868	0
243	162971	49.680375190868	0
243	163338	49.685375190868	0
243	164208	49.697649327242	0
243	164433	49.702649327242	0
243	164818	49.707649327242	0
243	165411	49.712649327242	0
243	165704	49.717649327242	0
243	166089	49.722649327242	0
243	166677	49.727649327242	0
243	167177	49.732649327242	0
243	167625	49.737649327242	0
243	167693	49.742649327242	0
243	168004	49.75399036494	0
243	168007	49.75899036494	0
243	168422	49.767166997622	0
243	168423	49.772166997622	0
243	169653	49.81326119543	0
243	169875	49.81826119543	0
243	170024	50.505	1
243	170277	50.51	13
243	170930	50.515	0
243	171814	50.52	0
243	172699	50.525	0
243	173804	50.53	0
243	174762	50.535	0
243	175351	50.54	0
243	175579	50.545	0
243	175822	50.55	0
243	176545	50.557432168363	0
243	177104	50.562432168363	0
243	177616	50.567432168363	0
243	177980	50.572432168363	0
243	178661	50.577432168363	0
243	178976	50.582432168363	0
243	179421	50.587432168363	0
243	180699	50.602279727274	0
243	181340	50.607279727274	0
243	181925	50.612279727274	0
243	182359	50.617279727274	0
243	183250	50.626703342595	0
243	183775	50.631703342595	0
243	184150	50.636703342595	0
243	185386	50.647439420151	0
243	185814	50.652439420151	0
243	186109	50.660885071246	0
243	186492	50.665885071246	0
243	187352	50.670885071246	0
243	187632	50.675885071246	0
243	187922	50.681248936679	0
243	188146	50.686248936679	0
243	188362	50.691248936679	0
243	188595	51.505	1
243	188605	51.51	0
243	189461	51.517170904208	13
243	190281	51.522170904208	0
243	190936	51.527170904208	0
243	191812	51.532170904208	0
243	192336	51.537170904208	0
243	192795	51.542170904208	0
243	193406	51.547170904208	0
243	193936	51.552912190191	0
243	194538	51.557912190191	0
243	195068	51.562912190191	0
243	195968	51.567912190191	0
243	196544	51.572912190191	0
243	197075	51.577912190191	0
243	197435	51.582912190191	0
243	198112	51.588573186361	0
243	198470	51.593573186361	0
243	198685	51.598573186361	0
243	199042	51.611505506549	0
243	199665	51.616505506549	0
243	199943	51.621505506549	0
243	200322	51.6277429884	0
243	200323	51.6327429884	0
243	200755	51.64733568392	0
243	200905	51.65233568392	0
243	201495	51.66291374081	0
243	201799	51.66791374081	0
243	202301	51.67291374081	0
243	202599	51.67791374081	0
243	202835	51.68291374081	0
243	203134	51.68791374081	0
243	203203	51.697011198639	0
243	203421	51.702011198639	0
243	203422	51.707011198639	0
243	203741	51.715577771154	0
243	204041	51.720577771154	0
243	204042	51.725577771154	0
243	204189	52.505	1
243	204670	52.51	17
243	205395	52.515	0
243	206076	52.52	0
243	206979	52.525	0
243	207372	52.53	0
243	207769	52.535	0
243	208526	52.54	0
243	209181	52.545	0
243	209564	52.55	0
243	210182	52.555	0
243	210646	52.56	0
243	211181	52.565	0
243	211634	52.57	0
243	212506	52.577436512169	0
243	213178	52.582436512169	0
243	213643	52.587436512169	0
243	214315	52.592966473872	0
243	214677	52.597966473872	0
243	215871	52.613242097517	0
243	216321	52.618242097517	0
243	216941	52.623242097517	0
243	217585	52.628242097517	0
243	218179	52.640610086642	0
243	218396	52.645610086642	0
243	218785	52.650610086642	0
243	219808	52.660682953339	0
243	220092	52.665682953339	0
243	220096	52.670682953339	0
243	220681	52.683179950888	0
243	220682	52.688179950888	0
243	221133	52.707172099798	0
243	221134	52.712172099798	0
243	221287	52.72153995798	0
243	221292	52.72653995798	0
243	221791	52.734043943804	0
243	221874	52.739043943804	0
243	223056	52.790378969133	0
243	223363	52.795378969133	0
243	223510	53.505	1
243	223858	53.51	26
243	224975	53.515	0
243	225681	53.52	0
243	226755	53.526333864334	0
243	227441	53.531333864334	0
243	228296	53.536333864334	0
243	228907	53.541333864334	0
243	229952	53.55014354684	0
243	230575	53.55514354684	0
243	231300	53.56014354684	0
243	231920	53.56514354684	0
243	233544	53.576824603292	0
243	233923	53.581824603292	0
243	234775	53.587399630657	0
243	235478	53.592399630657	0
243	236310	53.597399630657	0
243	238141	53.615582607447	0
243	238776	53.620582607447	0
243	239338	53.625582607447	0
243	239939	53.630582607447	0
243	240930	53.638759859685	0
243	241529	53.643759859685	0
243	241968	53.648759859685	0
243	243225	53.664431646767	0
243	243721	53.669431646767	0
243	244197	53.674431646767	0
243	244863	53.679431646767	0
243	245637	53.688175246749	0
243	246372	53.693175246749	0
243	246903	53.698175246749	0
243	247514	53.703175246749	0
243	248076	53.708175246749	0
243	248633	53.713175246749	0
243	249258	53.719293889122	0
243	249712	53.724293889122	0
243	250423	53.729293889122	0
243	250874	53.734293889122	0
243	251539	53.740407052574	0
243	251988	53.745407052574	0
243	252897	53.75509190999	0
243	253438	53.76009190999	0
243	254058	53.76509190999	0
243	254590	53.77009190999	0
243	254967	53.77509190999	0
243	255514	53.78009190999	0
243	255582	53.78509190999	0
243	255893	53.790939348409	0
243	256262	53.795939348409	0
243	256267	53.800939348409	0
243	256895	53.808207667991	0
243	256897	53.813207667991	0
243	257499	53.823179088712	0
243	257500	53.828179088712	0
243	257646	54.505	1
243	257962	54.51	26
243	259076	54.515	0
243	260288	54.52	0
243	261209	54.525	0
243	261922	54.53	0
243	262858	54.535	0
243	263968	54.54	0
243	264606	54.545	0
243	265295	54.55	0
243	266041	54.555	0
243	266647	54.56	0
243	267998	54.570941259117	0
243	268380	54.575941259117	0
243	268936	54.580941259117	0
243	269642	54.585941259117	0
243	270190	54.590941259117	0
243	271731	54.604831153591	0
243	272270	54.609831153591	0
243	273004	54.615016680675	0
243	273492	54.620016680675	0
243	275610	54.638517576362	0
243	276080	54.643517576362	0
243	276702	54.648517576362	0
243	277215	54.653517576362	0
243	278311	54.661043806383	0
243	278925	54.666043806383	0
243	280003	54.674609044927	0
243	280413	54.679609044927	0
243	281029	54.684609044927	0
243	281658	54.689609044927	0
243	282634	54.694609044927	0
243	283310	54.699609044927	0
243	283630	54.706181276645	0
243	284016	54.711181276645	0
243	284337	54.716181276645	0
243	284643	54.721181276645	0
243	285361	54.726181276645	0
243	285825	54.731181276645	0
243	286450	54.740569428284	0
243	286751	54.745569428284	0
243	287242	54.750681421565	0
243	287586	54.755681421565	0
243	288374	54.766572898373	0
243	288828	54.771572898373	0
243	289525	54.780974472015	0
243	289906	54.785974472015	0
243	290455	54.790974472015	0
243	290827	54.795974472015	0
243	291238	54.800974472015	0
243	292468	54.811897447568	0
243	292795	54.816897447568	0
243	293421	54.826228352659	0
243	293725	54.831228352659	0
243	294342	54.879396472015	0
243	294343	54.884396472015	0
243	294660	54.904227606568	0
243	294661	54.909227606568	0
243	297015	70.00501	0
243	297341	70.01001	0
243	297342	70.01501	0
243	297785	70.034436041831	0
243	298095	70.039436041831	0
243	298096	70.044436041831	0
243	298484	70.063444067859	0
243	299028	70.068444067859	0
243	299252	70.073444067859	0
243	299352	70.078444067859	0
243	299722	71.00501	0
243	299874	71.01001	0
243	300417	71.015596013691	0
243	300724	71.020596013691	0
243	300725	71.025596013691	0
243	301164	72.00501	0
243	301479	72.01001	0
243	301547	72.01501	0
243	302026	72.021006036363	0
243	302587	72.026006036363	0
243	302588	72.031006036363	0
243	303233	72.054764079856	0
243	303545	72.059764079856	0
243	304218	72.064764079856	0
243	304450	72.069764079856	0
243	304451	72.074764079856	0
243	304805	73.00501	0
243	305237	73.01001	0
243	305305	73.01501	0
243	305878	73.020996036989	0
243	306506	73.025996036989	0
243	306826	73.030996036989	0
243	306827	73.035996036989	0
243	307148	73.04551609449	0
243	307149	73.05051609449	0
243	378462	670.00501	0
243	378791	670.01001	0
243	379106	670.01501	0
243	379475	670.02001	0
243	379788	670.02501	0
243	380335	670.03001	0
243	380658	670.03501	0
243	380659	670.04001	0
243	381113	671.00501	0
243	381417	671.01001	0
243	381727	671.01501	0
243	382031	671.02001	0
243	382032	671.02501	0
243	382474	672.00501	0
243	382789	672.01001	0
243	383178	672.01501	0
243	383756	672.02001	0
243	384370	672.02501	0
243	384371	672.03001	0
243	385036	672.051524090276	0
243	385647	672.056524090276	0
243	385963	672.061524090276	0
243	386259	672.066524090276	0
243	386260	672.071524090276	0
243	386709	673.00501	0
243	387046	673.01001	0
243	387047	673.01501	0
243	387745	673.025476036989	0
243	388057	673.030476036989	0
243	388625	673.035476036989	0
243	388946	673.040476036989	0
243	388948	673.045476036989	0
243	460570	1270.00501	0
243	460899	1270.01001	0
243	460967	1270.01501	0
243	461434	1270.020356041832	0
243	461842	1270.025356041832	0
243	462157	1270.030356041832	0
243	462777	1270.035356041832	0
243	462781	1270.040356041832	0
243	463086	1271.00501	0
243	463533	1271.01001	0
243	463846	1271.01501	0
243	464153	1271.02001	0
243	464154	1271.02501	0
243	464434	1272.00501	0
243	464908	1272.01001	0
243	465236	1272.01501	0
243	465629	1272.02001	0
243	466126	1272.02501	0
243	466542	1272.03001	0
243	466916	1272.03501	0
243	467158	1272.04001	0
243	467159	1272.04501	0
243	467767	1272.053012119079	0
243	467768	1272.058012119079	0
243	468217	1273.00501	0
243	468551	1273.01001	0
243	468622	1273.01501	0
243	469097	1273.020036036989	0
243	469512	1273.025036036989	0
243	469895	1273.030036036989	0
243	470468	1273.035036036989	0
243	470469	1273.040036036989	0
243	541753	1870.00501	0
243	542169	1870.01001	0
243	542481	1870.01501	0
243	542868	1870.02001	0
243	543462	1870.02501	0
243	544018	1870.03001	0
243	544019	1870.03501	0
243	544476	1871.00501	0
243	544841	1871.01001	0
243	545151	1871.01501	0
243	545391	1871.02001	0
243	545392	1871.02501	0
243	545834	1872.00501	0
243	546149	1872.01001	0
243	546627	1872.01501	0
243	547188	1872.02001	0
243	547594	1872.02501	0
243	548076	1872.03001	0
243	548681	1872.03501	0
243	548977	1872.04001	0
243	548978	1872.04501	0
243	549267	1873.00501	0
243	549495	1873.01001	0
243	550081	1873.015286023704	0
243	550400	1873.020286023704	0
243	550468	1873.025286023704	0
243	550718	1873.030804057782	0
243	551039	1873.035804057782	0
243	551355	1873.040804057782	0
243	551676	1873.045804057782	0
243	551677	1873.050804057782	0
243	622990	2470.00501	0
243	623322	2470.01001	0
243	623640	2470.01501	0
243	624070	2470.02001	0
243	624071	2470.02501	0
243	624697	2470.045844067859	0
243	625009	2470.050844067859	0
243	625332	2470.055844067859	0
243	625333	2470.060844067859	0
243	625790	2471.00501	0
243	626091	2471.01001	0
243	626401	2471.01501	0
243	626705	2471.02001	0
243	626706	2471.02501	0
243	627145	2472.00501	0
243	627460	2472.01001	0
243	627782	2472.01501	0
243	628116	2472.02001	0
243	628505	2472.02501	0
243	629126	2472.03001	0
243	629903	2472.03501	0
243	630143	2472.04001	0
243	630144	2472.04501	0
243	630767	2472.064860066017	0
243	630768	2472.069860066017	0
243	631057	2473.00501	0
243	631221	2473.01001	0
243	631871	2473.016886023704	0
243	632318	2473.021886023704	0
243	632319	2473.026886023704	0
243	632705	2473.049684057781	0
243	633025	2473.054684057781	0
243	633341	2473.059684057781	0
243	633595	2473.064684057781	0
243	633596	2473.069684057781	0
243	704912	3070.00501	0
243	705241	3070.01001	0
243	705553	3070.01501	0
243	705991	3070.02001	0
243	705992	3070.02501	0
243	706440	3070.04584406786	0
243	706595	3070.05084406786	0
243	707265	3070.075812083817	0
243	707346	3070.080812083817	0
243	707670	3070.105140098794	0
243	707671	3070.110140098794	0
243	708125	3071.00501	0
243	708426	3071.01001	0
243	708736	3071.01501	0
243	709043	3071.02001	0
243	709044	3071.02501	0
243	709483	3072.00501	0
243	709801	3072.01001	0
243	710126	3072.01501	0
243	710518	3072.02001	0
243	710847	3072.02501	0
243	711171	3072.03001	0
243	711963	3072.03501	0
243	712414	3072.04001	0
243	712646	3072.04501	0
243	712647	3072.05001	0
243	713096	3073.00501	0
243	713430	3073.01001	0
243	713437	3073.01501	0
243	714075	3073.021636036989	0
243	714450	3073.026636036989	0
243	715018	3073.031636036989	0
243	715249	3073.036636036989	0
243	715340	3073.041636036989	0
243	786559	3670.00501	0
243	786779	3670.01001	0
243	787262	3670.015286025202	0
243	787793	3670.020286025202	0
243	787794	3670.025286025202	0
243	788175	3670.04808406786	0
243	788945	3670.05308406786	0
243	789045	3670.05808406786	0
243	789502	3671.00501	0
243	789867	3671.01001	0
243	790413	3671.01501	0
243	790417	3671.02001	0
243	790856	3672.00501	0
243	791171	3672.01001	0
243	791499	3672.01501	0
243	791827	3672.02001	0
243	792279	3672.02501	0
243	792280	3672.03001	0
243	792991	3672.049964079856	0
243	793595	3672.054964079856	0