version 2
run AODVScenario_1f-0-20121121-11:36:20-1472
attr configname AODVScenario_1f
attr datetime 20121121-11:36:20
attr experiment AODVScenario_1f
attr inifile AODV.ini
attr iterationvars $numNodes=50
attr iterationvars2 "$numNodes=50, $repetition=0"
attr measurement $numNodes=50
attr network csma802154net
attr numNodes 50
attr processid 1472
attr repetition 0
attr replication #0
attr resultdir results
attr runnumber 0
attr seedset 0

vector 211  csma802154net.dataCentricNetworkMan  RREQPacketFrequency  ETV
vector 212  csma802154net.dataCentricNetworkMan  RERRPacketFrequency  ETV
vector 213  csma802154net.dataCentricNetworkMan  DiscoveryPacketFrequency  ETV
vector 214  csma802154net.dataCentricNetworkMan  RegisterPacketFrequency  ETV
vector 215  csma802154net.dataCentricNetworkMan  RReplyPacketFrequency  ETV
vector 216  csma802154net.dataCentricNetworkMan  AODVDataPacketFrequency  ETV
vector 223  csma802154net.dataCentricNetworkMan  pendingRegistrationVector  ETV
vector 222  csma802154net.dataCentricNetworkMan  pendingRREQVector  ETV
vector 217  csma802154net.dataCentricNetworkMan  AODVDataLineBreakVector  ETV
vector 220  csma802154net.dataCentricNetworkMan  PendingDataPacketsVector  ETV
vector 243  csma802154net.fixhost[19].udpApp  "End-to-end delay"  ETV
vector 208  csma802154net.dataCentricNetworkMan  dataPacketE2EDelay  ETV
vector 244  csma802154net.fixhost[20].udpApp  "End-to-end delay"  ETV
vector 230  csma802154net.fixhost[6].udpApp  "End-to-end delay"  ETV
vector 233  csma802154net.fixhost[9].udpApp  "End-to-end delay"  ETV
vector 236  csma802154net.fixhost[12].udpApp  "End-to-end delay"  ETV
vector 241  csma802154net.fixhost[17].udpApp  "End-to-end delay"  ETV
vector 234  csma802154net.fixhost[10].udpApp  "End-to-end delay"  ETV
vector 235  csma802154net.fixhost[11].udpApp  "End-to-end delay"  ETV
vector 240  csma802154net.fixhost[16].udpApp  "End-to-end delay"  ETV
vector 225  csma802154net.fixhost[1].udpApp  "End-to-end delay"  ETV
vector 227  csma802154net.fixhost[3].udpApp  "End-to-end delay"  ETV
vector 226  csma802154net.fixhost[2].udpApp  "End-to-end delay"  ETV
208	247633	70.024876078344	0.024876078344
208	247887	70.02928409069	0.02928409069
208	248149	70.032772047873	0.032772047873
208	249861	71.028396060163	0.028396060163
208	250120	71.030884083058	0.030884083058
208	250637	71.037884106951	0.037884106951
208	252088	72.023916069963	0.023916069963
208	253140	72.039124109397	0.039124109397
208	253401	72.040972130412	0.040972130412
208	255277	73.029956073371	0.029956073371
208	256455	73.065572128209	0.065572128209
208	257017	73.095868100908	0.095868100908
208	319564	670.020076078344	0.020076078344
208	319931	670.022284047873	0.022284047873
208	320202	670.04905209069	0.04905209069
208	322162	671.027964106951	0.027964106951
208	322436	671.030916107638	0.030916107638
208	322708	671.037492088241	0.037492088241
208	324149	672.022636069962	0.022636069962
208	325186	672.035604109396	0.035604109396
208	325452	672.038412130411	0.038412130411
208	327327	673.02483607337	0.02483607337
208	328506	673.064260100908	0.064260100908
208	329061	673.090140128209	0.090140128209
208	391599	1270.02071609069	0.02071609069
208	391866	1270.026404078344	0.026404078344
208	392131	1270.033020047873	0.033020047873
208	393838	1271.032196106951	0.032196106951
208	394382	1271.053812107637	0.053812107637
208	394656	1271.05982008824	0.05982008824
208	396097	1272.021036069962	0.021036069962
208	396897	1272.033684109396	0.033684109396
208	397416	1272.041292130411	0.041292130411
208	399853	1273.030556100908	0.030556100908
208	400204	1273.034932073371	0.034932073371
208	400752	1273.041324128209	0.041324128209
208	463197	1870.019476047873	0.019476047873
208	463724	1870.04688409069	0.04688409069
208	463988	1870.053212078344	0.053212078344
208	466071	1871.03155608824	0.03155608824
208	466601	1871.054524106949	0.054524106949
208	466867	1871.056764107637	0.056764107637
208	468313	1872.021996069963	0.021996069963
208	469345	1872.033364109397	0.033364109397
208	469612	1872.036244130412	0.036244130412
208	472415	1873.035924100906	0.035924100906
208	472696	1873.03911615386	0.03911615386
208	473391	1873.068948129729	0.068948129729
208	535928	2470.022036047873	0.022036047873
208	536212	2470.028004078344	0.028004078344
208	536466	2470.03817209069	0.03817209069
208	538030	2471.024556060163	0.024556060163
208	538551	2471.046564083058	0.046564083058
208	539068	2471.05445210695	0.05445210695
208	541019	2472.029596126531	0.029596126531
208	541568	2472.038476163039	0.038476163039
208	541835	2472.04448418046	0.04448418046
208	543706	2473.02323607337	0.02323607337
208	545040	2473.060172100907	0.060172100907
208	545589	2473.066140128208	0.066140128208
208	607985	3070.022036047872	0.022036047872
208	608512	3070.049124090689	0.049124090689
208	608775	3070.053212078343	0.053212078343
208	610292	3071.022636060163	0.022636060163
208	610870	3071.051612083058	0.051612083058
208	611387	3071.059820106951	0.059820106951
208	613344	3072.036316126531	0.036316126531
208	613883	3072.05095618046	0.05095618046
208	614159	3072.053764163038	0.053764163038
208	615979	3073.026756073371	0.026756073371
208	616904	3073.060172100907	0.060172100907
208	617648	3073.069980128208	0.069980128208
208	679987	3670.015636047873	0.015636047873
208	680523	3670.025124078344	0.025124078344
208	680775	3670.02985209069	0.02985209069
208	682483	3671.023596060163	0.023596060163
208	682747	3671.025764083058	0.025764083058
208	683263	3671.03301210695	0.03301210695
208	684967	3672.025476098247	0.025476098247
208	685767	3672.036524137679	0.036524137679
208	686034	3672.0415721551	0.0415721551
208	688034	3673.02931607337	0.02931607337
208	688709	3673.039764100906	0.039764100906
208	689387	3673.049572128208	0.049572128208
208	751940	4270.02484404787	0.02484404787
208	752203	4270.027364090688	0.027364090688
208	752465	4270.030244078341	0.030244078341
208	754427	4271.026756106949	0.026756106949
208	754808	4271.030204107637	0.030204107637
208	755082	4271.052924088239	0.052924088239
208	757034	4272.032476126531	0.032476126531
208	757573	4272.04935618046	0.04935618046
208	757849	4272.053124163039	0.053124163039
208	760238	4273.037524100906	0.037524100906
208	760807	4273.072932129729	0.072932129729
208	761358	4273.079860153856	0.079860153856
208	823895	4870.02263609069	0.02263609069
208	824157	4870.024844047873	0.024844047873
208	824437	4870.033052078344	0.033052078344
208	825954	4871.023276060163	0.023276060163
208	826784	4871.05701210695	0.05701210695
208	827056	4871.064908083058	0.064908083058
208	828758	4872.025156098247	0.025156098247
208	829557	4872.037164137681	0.037164137681
208	829818	4872.039084155102	0.039084155102
208	831688	4873.03411607337	0.03411607337
208	832557	4873.065684100907	0.065684100907
208	833300	4873.075492128208	0.075492128208
208	895639	5470.017236047872	0.017236047872
208	896162	5470.027364090689	0.027364090689
208	896425	5470.032092078343	0.032092078343
208	898251	5471.022596088241	0.022596088241
208	898893	5471.048764107638	0.048764107638
208	899411	5471.073012106951	0.073012106951
208	900859	5472.020076069963	0.020076069963
208	901915	5472.03684413768	0.03684413768
208	902182	5472.040612155101	0.040612155101
208	904051	5473.028996073371	0.028996073371
208	905241	5473.056084100908	0.056084100908
208	905642	5473.060524120985	0.060524120985
208	968447	6070.020716090689	0.020716090689
208	968705	6070.022924047872	0.022924047872
208	968984	6070.025764078343	0.025764078343
208	971064	6071.03059608824	0.03059608824
208	971600	6071.053884107637	0.053884107637
208	971862	6071.056372106949	0.056372106949
208	973309	6072.019116069963	0.019116069963
208	974475	6072.038124137681	0.038124137681
208	974747	6072.063012155102	0.063012155102
208	976623	6073.026756073371	0.026756073371
208	977688	6073.061732128209	0.061732128209
208	978248	6073.070268100908	0.070268100908
208	1040788	6670.021036078342	0.021036078342
208	1041049	6670.023636047872	0.023636047872
208	1041315	6670.027364090688	0.027364090688
208	1042773	6671.025516060163	0.025516060163
208	1043660	6671.06245210695	0.06245210695
208	1044308	6671.089548083057	0.089548083057
208	1045757	6672.022316069962	0.022316069962
208	1046663	6672.033044109396	0.033044109396
208	1047183	6672.056332130411	0.056332130411
208	1049002	6673.02611607337	0.02611607337
208	1050118	6673.060812100907	0.060812100907
208	1050665	6673.066852128208	0.066852128208
208	1113532	7270.019756078343	0.019756078343
208	1113898	7270.025764090689	0.025764090689
208	1114423	7270.047492047872	0.047492047872
208	1116263	7271.02867608824	0.02867608824
208	1116905	7271.052924107637	0.052924107637
208	1117423	7271.07845210695	0.07845210695
208	1118871	7272.020716069962	0.020716069962
208	1119906	7272.032084109394	0.032084109394
208	1120169	7272.03464413041	0.03464413041
208	1122243	7273.028956100907	0.028956100907
208	1122996	7273.038764129732	0.038764129732
208	1123547	7273.04928415386	0.04928415386
211	399	1.005	1
211	531	1.01	4
211	812	1.015	24
211	1369	1.02	28
211	2109	1.025	32
211	2869	1.03	59
211	3834	1.035	43
211	4566	1.04	34
211	5136	1.045	29
211	5422	1.05	21
211	5785	1.055	31
211	6169	1.06	44
211	6738	1.065	32
211	6739	1.07	0
211	7349	1.080983360396	37
211	7350	1.085983360396	0
211	11701	43.505	1
211	11989	43.51	21
211	12765	43.515	0
211	13471	43.52	0
211	13932	43.525	0
211	14535	43.53372211699	0
211	14976	43.53872211699	0
211	15409	43.54372211699	0
211	16156	43.55088943186	0
211	16596	43.55588943186	0
211	17120	43.56088943186	0
211	17649	43.56588943186	0
211	18812	43.576869269372	0
211	19169	43.581869269372	0
211	19606	43.587890066747	0
211	19934	43.592890066747	0
211	20315	43.597890066747	0
211	20827	43.602890066747	0
211	21184	43.607890066747	0
211	21778	43.613496139957	0
211	22123	43.618496139957	0
211	22436	43.623925276802	0
211	22640	43.628925276802	0
211	23918	43.640128124424	0
211	24289	43.645128124424	0
211	24587	43.650128124424	0
211	25133	43.656128879703	0
211	25507	43.661128879703	0
211	25752	43.666128879703	0
211	26257	43.675007216828	0
211	26687	43.680007216828	0
211	27056	43.685007216828	0
211	27543	43.690007216828	0
211	28028	43.695007216828	0
211	28623	43.700007216828	0
211	29060	43.705007216828	0
211	29606	43.710007216828	0
211	30246	43.715009550119	0
211	30324	43.720009550119	0
211	30773	43.72566736617	0
211	31033	43.73066736617	0
211	31281	43.73566736617	0
211	31528	43.751263887575	0
211	31529	43.756263887575	0
211	31785	43.787287910578	0
211	31786	43.792287910578	0
211	32026	43.800582638934	0
211	32027	43.805582638934	0
211	32277	43.823166660967	0
211	32278	43.828166660967	0
211	32451	44.505	1
211	32790	44.51	14
211	33517	44.515	0
211	34099	44.52	0
211	34408	44.525	0
211	34740	44.531477661566	0
211	34869	44.536477661566	0
211	35485	44.541895082922	0
211	35971	44.546895082922	0
211	36347	44.551895082922	0
211	36656	44.556895082922	0
211	36926	44.561895082922	0
211	37109	44.566895082922	0
211	37491	44.571895082922	0
211	37794	44.576895082922	0
211	38350	44.585056282232	0
211	38424	44.590056282232	0
211	39882	44.608290865708	0
211	40093	44.613290865708	0
211	40391	44.618290865708	0
211	40649	44.624891252017	0
211	40771	44.629891252017	0
211	41095	44.635564984982	0
211	41509	44.640564984982	0
211	41805	44.645564984982	0
211	42160	44.653578853359	0
211	42410	44.658578853359	0
211	42776	44.663578853359	0
211	43515	44.674673139532	0
211	43579	44.679673139532	0
211	44024	44.684932480361	0
211	44500	44.689932480361	0
211	44751	44.694932480361	0
211	45236	44.702758379204	0
211	45481	44.707758379204	0
211	45482	44.712758379204	0
211	45729	44.738468987787	0
211	45730	44.743468987787	0
211	45903	45.505	1
211	46413	45.51	13
211	47116	45.515	0
211	47423	45.52	0
211	47615	45.527102974117	0
211	48043	45.532102974117	0
211	48352	45.537102974117	0
211	49015	45.547301085164	0
211	49135	45.552301085164	0
211	49638	45.564551065325	0
211	49879	45.569551065325	0
211	50284	45.577514019005	0
211	50664	45.582514019005	0
211	50865	45.587514019005	0
211	51279	45.592838980222	0
211	51464	45.597838980222	0
211	52195	45.607020604239	0
211	52589	45.612020604239	0
211	53057	45.617020604239	0
211	53498	45.624729562141	0
211	53795	45.629729562141	0
211	55036	45.653740711889	0
211	55265	45.658740711889	0
211	56470	45.673422329927	0
211	56915	45.678422329927	0
211	57604	45.688111091327	0
211	57959	45.693111091327	0
211	58714	45.704806328459	0
211	58960	45.709806328459	0
211	59220	45.715996312005	0
211	59469	45.720996312005	0
211	59717	45.725996312005	0
211	60087	45.731794552729	0
211	60445	45.736794552729	0
211	60947	45.744076725689	0
211	61267	45.749076725689	0
211	61811	45.754076725689	0
211	62349	45.782078947457	0
211	62539	45.787078947457	0
211	62712	46.505	1
211	63167	46.51	12
211	63866	46.515	0
211	64440	46.52	0
211	64941	46.525	0
211	65257	46.53	0
211	65565	46.535	0
211	66053	46.54	0
211	66717	46.545	0
211	67018	46.55	0
211	67272	46.555	0
211	67565	46.56	0
211	67700	46.565	0
211	67971	46.57	0
211	68228	46.575	0
211	68884	46.58662874152	0
211	69129	46.59162874152	0
211	69257	46.59662874152	0
211	70075	46.605480411676	0
211	70688	46.610480411676	0
211	71142	46.615480411676	0
211	72013	46.628190511644	0
211	72377	46.633190511644	0
211	72810	46.638190511644	0
211	72947	46.643190511644	0
211	73141	46.648420771195	0
211	73461	46.653420771195	0
211	73703	46.658420771195	0
211	74138	46.663975270383	0
211	74139	46.668975270383	0
211	74494	47.505	1
211	74560	47.51	0
211	75330	47.51567841729	18
211	75889	47.52067841729	0
211	76498	47.52567841729	0
211	76947	47.53067841729	0
211	77430	47.53567841729	0
211	77986	47.54067841729	0
211	78439	47.54567841729	0
211	79242	47.55067841729	0
211	79731	47.55567841729	0
211	79986	47.56067841729	0
211	80437	47.56567841729	0
211	80770	47.57067841729	0
211	81151	47.57567841729	0
211	82272	47.586285076091	0
211	82715	47.591285076091	0
211	82971	47.596285076091	0
211	83564	47.606761601397	0
211	84055	47.611761601397	0
211	84757	47.619276719218	0
211	85287	47.624276719218	0
211	85653	47.629276719218	0
211	85914	47.634276719218	0
211	86779	47.650725069308	0
211	87139	47.655725069308	0
211	87702	47.661411622235	0
211	88124	47.666411622235	0
211	88714	47.681889452941	0
211	89129	47.686889452941	0
211	89501	47.691889452941	0
211	89770	47.696889452941	0
211	90214	47.701889452941	0
211	90216	47.706889452941	0
211	91218	47.73679891274	0
211	91466	47.74179891274	0
211	91467	47.74679891274	0
211	91728	47.754198967617	0
211	91730	47.759198967617	0
211	91973	47.767775505781	0
211	91974	47.772775505781	0
211	92228	47.780598919812	0
211	92536	47.785598919812	0
211	92858	47.790598919812	0
211	92968	47.795598919812	0
211	93232	47.824888978702	0
211	93233	47.829888978702	0
211	93406	48.505	1
211	94096	48.51	22
211	95051	48.515	0
211	95474	48.52	0
211	96059	48.525	9
211	96646	48.53	0
211	97072	48.535	0
211	97903	48.54	11
211	98331	48.545	4
211	98967	48.55	16
211	99603	48.555	19
211	100629	48.56	47
211	101501	48.565	18
211	102681	48.57	20
211	103527	48.575	11
211	104248	48.58	22
211	104916	48.585	14
211	105275	48.59	0
211	105679	48.595	0
211	106606	48.6	7
211	106960	48.605	21
211	107281	48.61	0
211	107530	48.615	0
211	107663	48.62	0
211	108720	48.629650290822	0
211	109162	48.634650290822	0
211	109593	48.639650290822	0
211	110243	48.648309766245	0
211	110692	48.653309766245	0
211	110760	48.658309766245	0
211	111399	48.664590143619	0
211	111592	48.669590143619	0
211	112282	48.678337092791	0
211	112599	48.683337092791	0
211	112846	48.690347734217	0
211	112854	48.695347734217	0
211	113154	48.700347734217	0
211	113676	48.705347734217	0
211	113879	48.710347734217	0
211	113883	48.715347734217	0
211	115379	48.750221555052	0
211	115714	48.755221555052	0
211	116210	48.760221555052	0
211	116211	48.765221555052	0
211	116538	48.781082892122	0
211	116800	48.786082892122	0
211	117005	48.791082892122	0
211	117006	48.796082892122	0
211	117135	49.505	1
211	117201	49.51	0
211	117726	49.515287651401	11
211	118166	49.520287651401	0
211	118749	49.52723387186	0
211	118817	49.53223387186	0
211	119078	49.537773106129	0
211	119495	49.542773106129	0
211	119942	49.547773106129	0
211	120525	49.554627682207	0
211	120719	49.559627682207	0
211	120783	49.564627682207	0
211	121689	49.573594512533	0
211	122251	49.578594512533	0
211	122381	49.583594512533	0
211	122826	49.588594512533	0
211	122886	49.593594512533	0
211	123330	49.601805590087	0
211	123709	49.606805590087	0
211	123913	49.611805590087	0
211	124173	49.616805590087	0
211	124474	49.621805590087	0
211	124899	49.626805590087	0
211	125339	49.631805590087	0
211	125656	49.636805590087	0
211	125967	49.641805590087	0
211	126173	49.647083709471	0
211	126409	49.652083709471	0
211	126649	49.657083709471	0
211	126771	50.505	1
211	126778	50.51	0
211	127595	50.519228770433	16
211	128369	50.524228770433	0
211	129122	50.529228770433	0
211	129521	50.534228770433	0
211	129658	50.539228770433	0
211	129983	50.544228770433	0
211	130489	50.549228770433	0
211	131010	50.554228770433	0
211	131477	50.559228770433	0
211	132127	50.564228770433	0
211	132471	50.569228770433	0
211	133247	50.579924267193	0
211	133580	50.584924267193	0
211	134125	50.589924267193	0
211	134444	50.594924267193	0
211	135102	50.601418727434	0
211	135416	50.606418727434	0
211	135806	50.611418727434	0
211	136223	50.616418727434	0
211	136679	50.621418727434	0
211	137242	50.628984476933	0
211	137569	50.633984476933	0
211	138551	50.642700878782	0
211	139372	50.647700878782	0
211	139558	50.652700878782	0
211	140327	50.657700878782	0
211	140775	50.662700878782	0
211	140975	50.667700878782	0
211	141305	50.672700878782	0
211	142091	50.683191543812	0
211	142583	50.688191543812	0
211	143016	50.694604906199	0
211	143195	50.699604906199	0
211	143766	50.70990089828	0
211	143769	50.71490089828	0
211	144395	50.727848708507	0
211	144646	50.732848708507	0
211	145288	50.74902443582	0
211	145472	50.75402443582	0
211	145879	50.75902443582	0
211	146140	50.76402443582	0
211	146501	50.76902443582	0
211	146568	50.77402443582	0
211	146689	51.505	1
211	146755	51.51	0
211	147530	51.515233842118	17
211	148167	51.520233842118	0
211	148722	51.526021682177	0
211	149111	51.531021682177	0
211	149640	51.539098812091	0
211	149854	51.544098812091	0
211	150337	51.549098812091	0
211	150724	51.554098812091	0
211	151353	51.559098812091	0
211	151692	51.564098812091	0
211	152209	51.569098812091	0
211	153512	51.582973649136	0
211	153861	51.587973649136	0
211	154321	51.592973649136	0
211	154592	51.597973649136	0
211	155125	51.603351532239	0
211	155567	51.608351532239	0
211	156002	51.613351532239	0
211	156468	51.618351532239	0
211	156840	51.623351532239	0
211	157385	51.632189242272	0
211	157833	51.637189242272	0
211	158181	51.642189242272	0
211	158616	51.647189242272	0
211	158999	51.652189242272	0
211	159254	51.657189242272	0
211	159750	51.662189242272	0
211	160160	51.667189242272	0
211	160499	51.672189242272	0
211	161149	51.679426644017	0
211	161604	51.684426644017	0
211	162242	51.698705637631	0
211	162500	51.703705637631	0
211	162686	51.708705637631	0
211	162751	51.714066500651	0
211	163072	51.719066500651	0
211	163073	51.724066500651	0
211	163337	51.744268516514	0
211	163338	51.749268516514	0
211	163458	52.505	1
211	163465	52.51	0
211	164128	52.518369546265	18
211	165479	52.523369546265	0
211	166521	52.528369546265	0
211	167170	52.533369546265	0
211	167902	52.538369546265	0
211	168499	52.543369546265	0
211	169043	52.548369546265	0
211	169793	52.553369546265	0
211	170403	52.558369546265	0
211	170905	52.563369546265	0
211	171464	52.568369546265	0
211	172001	52.573369546265	0
211	172927	52.5846319006	0
211	173264	52.5896319006	0
211	173934	52.5946319006	0
211	174184	52.5996319006	0
211	174825	52.6046319006	0
211	175395	52.617703397716	0
211	175830	52.622703397716	0
211	176215	52.628513397037	0
211	176616	52.633513397037	0
211	177682	52.650243031936	0
211	177898	52.655243031936	0
211	178363	52.660243031936	0
211	178939	52.665243031936	0
211	179078	52.670243031936	0
211	180130	52.68452640638	0
211	180410	52.68952640638	0
211	180551	52.69452640638	0
211	180623	52.69952640638	0
211	181385	52.709622642029	0
211	181648	52.714622642029	0
211	181982	52.719622642029	0
211	182255	52.724622642029	0
211	182713	52.730774647153	0
211	182717	52.735774647153	0
211	182855	53.505	1
211	183318	53.51	21
211	183956	53.515	0
211	184899	53.52	0
211	185660	53.525	0
211	186307	53.53	0
211	186943	53.535	0
211	187511	53.54	0
211	188238	53.545	0
211	188947	53.55	0
211	189708	53.555	0
211	189953	53.56	0
211	190170	53.565	0
211	190839	53.57	0
211	191317	53.575	0
211	191764	53.58	0
211	193005	53.592386795789	0
211	193721	53.597386795789	0
211	194771	53.611599785328	0
211	195317	53.616599785328	0
211	195782	53.621599785328	0
211	197007	53.63633882041	0
211	197551	53.64133882041	0
211	198093	53.64633882041	0
211	198616	53.65133882041	0
211	199175	53.65633882041	0
211	199326	53.66133882041	0
211	199878	53.66633882041	0
211	200543	53.67133882041	0
211	200881	53.67633882041	0
211	201173	53.68133882041	0
211	202041	53.689395012724	0
211	202592	53.694395012724	0
211	202931	53.699395012724	0
211	203761	53.705571233713	0
211	204167	53.710571233713	0
211	204507	53.715571233713	0
211	204980	53.720571233713	0
211	205465	53.725571233713	0
211	205924	53.730571233713	0
211	206438	53.735571233713	0
211	206794	53.740571233713	0
211	206995	53.745571233713	0
211	207073	53.750571233713	0
211	208468	53.781501762358	0
211	208813	53.786501762358	0
211	209762	53.819062833504	0
211	209763	53.824062833504	0
211	210030	53.834203629609	0
211	210033	53.839203629609	0
211	210196	54.505	1
211	210509	54.51	28
211	211708	54.515	0
211	212783	54.52	0
211	213559	54.525	0
211	214234	54.53	0
211	214710	54.535	0
211	215470	54.54	0
211	216156	54.545	0
211	216710	54.55	0
211	217515	54.555	0
211	217951	54.56	0
211	218796	54.565	0
211	220822	54.583434508202	0
211	221470	54.588434508202	0
211	222629	54.598167300713	0
211	223141	54.603167300713	0
211	223589	54.608167300713	0
211	224887	54.618667434174	0
211	225615	54.623667434174	0
211	226108	54.628667434174	0
211	226539	54.633667434174	0
211	227195	54.638667434174	0
211	227634	54.643667434174	0
211	228761	54.656148212992	0
211	229335	54.661148212992	0
211	229881	54.666148212992	0
211	230510	54.671222693876	0
211	231070	54.676222693876	0
211	231810	54.685004574922	0
211	232169	54.690004574922	0
211	233047	54.699846645468	0
211	233458	54.704846645468	0
211	233820	54.709846645468	0
211	234325	54.714846645468	0
211	234794	54.719846645468	0
211	235297	54.724846645468	0
211	236338	54.729846645468	0
211	236753	54.734846645468	0
211	237139	54.739846645468	0
211	237492	54.748205569039	0
211	237826	54.753205569039	0
211	238164	54.758396693875	0
211	238511	54.763396693875	0
211	239138	54.770070723287	0
211	239417	54.775070723287	0
211	239887	54.780070723287	0
211	240033	54.785070723287	0
211	240448	54.791202346691	0
211	240994	54.796202346691	0
211	241127	54.801202346691	0
211	241387	54.806202346691	0
211	241811	54.811220195456	0
211	242155	54.816220195456	0
211	243251	54.841933762178	0
211	243535	54.846933762178	0
211	244364	54.881124141067	0
211	244644	54.886124141067	0
211	244645	54.891124141067	0
211	246637	70.00501	0
211	246769	70.01001	0
211	247042	70.015926021469	0
211	247491	70.020926021469	0
211	247765	70.025926021469	0
211	248018	70.030926021469	0
211	248293	70.035926021469	0
211	248294	70.040926021469	0
211	248609	71.00501	0
211	248954	71.01001	0
211	248961	71.01501	0
211	249405	71.021316040904	0
211	249544	71.026316040904	0
211	250256	71.032084068982	0
211	250563	71.037084068982	0
211	250772	71.042084068982	0
211	250773	71.047084068982	0
211	251068	72.00501	0
211	251295	72.01001	0
211	251430	72.01501	0
211	251950	72.021326043142	0
211	252271	72.026326043142	0
211	252741	72.031326043142	0
211	252801	72.036326043142	0
211	253530	72.041532113852	0
211	253534	72.046532113852	0
211	253795	73.00501	0
211	254203	73.01001	0
211	254479	73.01501	0
211	254539	73.02001	0
211	255014	73.025436048058	0
211	255335	73.030436048058	0
211	255412	73.035436048058	0
211	255924	73.059812076239	0
211	256371	73.064812076239	0
211	256597	73.069812076239	0
211	256598	73.074812076239	0
211	256932	73.095468088714	0
211	257153	73.100468088714	0
211	257154	73.105468088714	0
211	318637	670.00501	0
211	318910	670.01001	0
211	319168	670.01501	0
211	319488	670.02001	0
211	320078	670.02501	0
211	320079	670.03001	0
211	320330	670.05405209069	0
211	320331	670.05905209069	0
211	320589	671.00501	0
211	320988	671.01001	0
211	321247	671.01501	0
211	321504	671.02001	0
211	321949	671.02501	0
211	322359	671.03001	0
211	322572	671.03501	0
211	322836	671.04001	0
211	322837	671.04501	0
211	323213	672.00501	0
211	323487	672.01001	0
211	323759	672.01501	0
211	324011	672.02001	0
211	324335	672.02501	0
211	324590	672.03001	0
211	325099	672.03501	0
211	325584	672.04001	0
211	325585	672.04501	0
211	325983	673.00501	0
211	326260	673.01001	0
211	326533	673.01501	0
211	326792	673.02001	0
211	327328	673.02501	0
211	327462	673.03001	0
211	327899	673.055972076239	0
211	328278	673.060972076239	0
211	328642	673.065972076239	0
211	328643	673.070972076239	0
211	328977	673.08974011185	0
211	329203	673.09474011185	0
211	329204	673.09974011185	0
211	390687	1270.00501	0
211	391019	1270.01001	0
211	391218	1270.01501	0
211	391535	1270.02001	0
211	391736	1270.02501	0
211	391997	1270.03001	0
211	392275	1270.03501	0
211	392276	1270.04001	0
211	392534	1271.00501	0
211	392667	1271.01001	0
211	393192	1271.017526026865	0
211	393449	1271.022526026865	0
211	393701	1271.027526026865	0
211	393896	1271.032526026865	0
211	393974	1271.037526026865	0
211	394244	1271.049572081271	0
211	394516	1271.054572081271	0
211	394576	1271.059572081271	0
211	394784	1271.06482008824	0
211	394785	1271.06982008824	0
211	395164	1272.00501	0
211	395438	1272.01001	0
211	395710	1272.01501	0
211	396021	1272.02001	0
211	396283	1272.02501	0
211	396672	1272.03001	0
211	397033	1272.03501	0
211	397288	1272.04001	0
211	397548	1272.04501	0
211	397549	1272.05001	0
211	397947	1273.00501	0
211	398224	1273.01001	0
211	398494	1273.01501	0
211	398750	1273.02001	0
211	399015	1273.02501	0
211	399648	1273.03001	0
211	400205	1273.03501	0
211	400615	1273.04001	0
211	400894	1273.04501	0
211	400895	1273.05001	0
211	462428	1870.00501	0
211	462701	1870.01001	0
211	462882	1870.01501	0
211	463258	1870.02001	0
211	463345	1870.02501	0
211	463852	1870.047764063792	0
211	463912	1870.052764063792	0
211	464119	1870.058212078344	0
211	464120	1870.063212078344	0
211	464507	1871.00501	0
211	464567	1871.01001	0
211	465030	1871.015926026865	0
211	465293	1871.020926026865	0
211	465547	1871.025926026865	0
211	465991	1871.030926026865	0
211	466199	1871.035926026865	0
211	466200	1871.040926026865	0
211	467000	1871.059524106949	0
211	467001	1871.064524106949	0
211	467377	1872.00501	0
211	467651	1872.01001	0
211	467923	1872.01501	0
211	468178	1872.02001	0
211	468499	1872.02501	0
211	468830	1872.03001	0
211	469484	1872.03501	0
211	469744	1872.04001	0
211	469745	1872.04501	0
211	470143	1873.00501	0
211	470420	1873.01001	0
211	470749	1873.01501	0
211	471006	1873.02001	0
211	471386	1873.02501	0
211	471655	1873.03001	0
211	472265	1873.03501	0
211	472892	1873.04001	0
211	472959	1873.04501	0
211	473525	1873.073948129729	0
211	473526	1873.078948129729	0
211	534880	2470.00501	0
211	535166	2470.01001	0
211	535342	2470.01501	0
211	535793	2470.020036035611	0
211	536073	2470.025036035611	0
211	536343	2470.030036035611	0
211	536344	2470.035036035611	0
211	536594	2470.04317209069	0
211	536595	2470.04817209069	0
211	536982	2471.00501	0
211	537139	2471.01001	0
211	537315	2471.01501	0
211	537891	2471.020676040904	0
211	538158	2471.025676040904	0
211	538159	2471.030676040904	0
211	538684	2471.047764068982	0
211	538938	2471.052764068982	0
211	539203	2471.057764068982	0
211	539204	2471.062764068982	0
211	539580	2472.00501	0
211	539854	2472.01001	0
211	540129	2472.01501	0
211	540387	2472.02001	0
211	540757	2472.02501	0
211	541077	2472.03001	0
211	541282	2472.03501	0
211	541701	2472.04001	0
211	541893	2472.04501	0
211	541968	2472.05001	0
211	542369	2473.00501	0
211	542699	2473.01001	0
211	543093	2473.01501	0
211	543502	2473.02001	0
211	543840	2473.02501	0
211	543841	2473.03001	0
211	544433	2473.054692076238	0
211	544959	2473.059692076238	0
211	545449	2473.064692076238	0
211	545731	2473.069692076238	0
211	545732	2473.074692076238	0
211	607215	3070.00501	0
211	607488	3070.01001	0
211	607492	3070.01501	0
211	607859	3070.02163603561	0
211	608132	3070.02663603561	0
211	608133	3070.03163603561	0
211	608640	3070.050324063791	0
211	608906	3070.055324063791	0
211	608907	3070.060324063791	0
211	609294	3071.00501	0
211	609564	3071.01001	0
211	609823	3071.01501	0
211	610094	3071.02001	0
211	610477	3071.02501	0
211	610478	3071.03001	0
211	611006	3071.052492068982	0
211	611257	3071.057492068982	0
211	611522	3071.062492068982	0
211	611523	3071.067492068982	0
211	611899	3072.00501	0
211	612176	3072.01001	0
211	612448	3072.01501	0
211	612706	3072.02001	0
211	613016	3072.02501	0
211	613209	3072.03001	0
211	613216	3072.03501	0
211	613471	3072.041316126531	0
211	613664	3072.046316126531	0
211	613944	3072.051316126531	0
211	614292	3072.056316126531	0
211	614293	3072.061316126531	0
211	614694	3073.00501	0
211	614965	3073.01001	0
211	615238	3073.01501	0
211	615497	3073.02001	0
211	615776	3073.02501	0
211	616170	3073.03001	0
211	616171	3073.03501	0
211	616698	3073.055972076238	0
211	617160	3073.060972076238	0
211	617505	3073.065972076238	0
211	617790	3073.070972076238	0
211	617791	3073.075972076238	0
211	679327	3670.00501	0
211	679656	3670.01001	0
211	679912	3670.01501	0
211	680137	3670.02001	0
211	680447	3670.02501	0
211	680776	3670.03001	0
211	680904	3670.03501	0
211	681291	3671.00501	0
211	681564	3671.01001	0
211	681817	3671.01501	0
211	682148	3671.02001	0
211	682670	3671.02501	0
211	683060	3671.03001	0
211	683398	3671.03501	0
211	683399	3671.04001	0
211	683778	3672.00501	0
211	684108	3672.01001	0
211	684327	3672.01501	0
211	684636	3672.02001	0
211	684892	3672.02501	0
211	685348	3672.03001	0
211	685625	3672.03501	0
211	685903	3672.04001	0
211	686166	3672.04501	0
211	686167	3672.05001	0
211	686565	3673.00501	0
211	686839	3673.01001	0
211	687112	3673.01501	0