version 2
run AODVScenario_1f-70-20121121-12:09:49-3908
attr configname AODVScenario_1f
attr datetime 20121121-12:09:49
attr experiment AODVScenario_1f
attr inifile AODV.ini
attr iterationvars $numNodes=120
attr iterationvars2 "$numNodes=120, $repetition=0"
attr measurement $numNodes=120
attr network csma802154net
attr numNodes 120
attr processid 3908
attr repetition 0
attr replication #0
attr resultdir results
attr runnumber 70
attr seedset 70

vector 491  csma802154net.dataCentricNetworkMan  RREQPacketFrequency  ETV
vector 492  csma802154net.dataCentricNetworkMan  RERRPacketFrequency  ETV
vector 493  csma802154net.dataCentricNetworkMan  DiscoveryPacketFrequency  ETV
vector 494  csma802154net.dataCentricNetworkMan  RegisterPacketFrequency  ETV
vector 495  csma802154net.dataCentricNetworkMan  RReplyPacketFrequency  ETV
vector 496  csma802154net.dataCentricNetworkMan  AODVDataPacketFrequency  ETV
vector 503  csma802154net.dataCentricNetworkMan  pendingRegistrationVector  ETV
vector 502  csma802154net.dataCentricNetworkMan  pendingRREQVector  ETV
vector 500  csma802154net.dataCentricNetworkMan  PendingDataPacketsVector  ETV
vector 509  csma802154net.fixhost[5].udpApp  "End-to-end delay"  ETV
vector 488  csma802154net.dataCentricNetworkMan  dataPacketE2EDelay  ETV
vector 515  csma802154net.fixhost[11].udpApp  "End-to-end delay"  ETV
vector 516  csma802154net.fixhost[12].udpApp  "End-to-end delay"  ETV
vector 507  csma802154net.fixhost[3].udpApp  "End-to-end delay"  ETV
vector 505  csma802154net.fixhost[1].udpApp  "End-to-end delay"  ETV
vector 510  csma802154net.fixhost[6].udpApp  "End-to-end delay"  ETV
vector 512  csma802154net.fixhost[8].udpApp  "End-to-end delay"  ETV
vector 523  csma802154net.fixhost[19].udpApp  "End-to-end delay"  ETV
vector 518  csma802154net.fixhost[14].udpApp  "End-to-end delay"  ETV
vector 525  csma802154net.fixhost[21].udpApp  "End-to-end delay"  ETV
488	1321633	70.024316032906	0.024316032906
488	1322224	70.030324050485	0.030324050485
488	1323398	70.039844089895	0.039844089895
488	1327815	71.025156090026	0.025156090026
488	1328406	71.027364061914	0.027364061914
488	1330179	71.036812116377	0.036812116377
488	1333681	72.02871606793	0.02871606793
488	1335476	72.06117209513	0.06117209513
488	1340065	73.031804084084	0.031804084084
488	1341476	73.061132108987	0.061132108987
488	1490129	670.012796032906	0.012796032906
488	1490717	670.015284050486	0.015284050486
488	1491891	670.026404089896	0.026404089896
488	1495096	671.018476061913	0.018476061913
488	1497447	671.030204090026	0.030204090026
488	1499566	671.061772116378	0.061772116378
488	1502810	672.02231606793	0.02231606793
488	1504599	672.033084095129	0.033084095129
488	1509330	673.034116084085	0.034116084085
488	1511201	673.064332108987	0.064332108987
488	1659851	1270.011836032906	0.011836032906
488	1660441	1270.014644050486	0.014644050486
488	1661615	1270.023844089896	0.023844089896
488	1665922	1271.024876061914	0.024876061914
488	1666517	1271.028036090025	0.028036090025
488	1668880	1271.057684116377	0.057684116377
488	1672658	1272.02295606793	0.02295606793
488	1673878	1272.02988409513	0.02988409513
488	1678336	1273.026116084085	0.026116084085
488	1679592	1273.032404108987	0.032404108987
488	1828362	1870.011516032907	0.011516032907
488	1828953	1870.015604050487	0.015604050487
488	1830127	1870.026404089896	0.026404089896
488	1833579	1871.021356061913	0.021356061913
488	1835366	1871.046844090025	0.046844090025
488	1837459	1871.075532120623	0.075532120623
488	1841303	1872.017836067929	0.017836067929
488	1843092	1872.027644095129	0.027644095129
488	1847550	1873.027716084083	0.027716084083
488	1848806	1873.034004108985	0.034004108985
488	1997456	2470.014716032907	0.014716032907
488	1998048	2470.020084050487	0.020084050487
488	1999221	2470.029604089897	0.029604089897
488	2003567	2471.023916061913	0.023916061913
488	2004162	2471.027076090025	0.027076090025
488	2006525	2471.054164116377	0.054164116377
488	2009765	2472.019756067929	0.019756067929
488	2011559	2472.032764095129	0.032764095129
488	2016931	2473.031804084085	0.031804084085
488	2017573	2473.052564108986	0.052564108986
488	2166823	3070.010556032907	0.010556032907
488	2167413	3070.014004050487	0.014004050487
488	2168587	3070.025124089896	0.025124089896
488	2171919	3071.022956061914	0.022956061914
488	2173693	3071.034364090025	0.034364090025
488	2176520	3071.085380120622	0.085380120622
488	2180945	3072.02128406793	0.02128406793
488	2182165	3072.02789209513	0.02789209513
488	2187263	3073.031516108987	0.031516108987
488	2187873	3073.034932084085	0.034932084085
488	2336653	3670.012476032907	0.012476032907
488	2337244	3670.019444050487	0.019444050487
488	2338418	3670.027684089897	0.027684089897
488	2342193	3671.020716061912	0.020716061912
488	2343978	3671.032724116771	0.032724116771
488	2345201	3671.040364144653	0.040364144653
488	2348445	3672.020716067929	0.020716067929
488	2350233	3672.030844095128	0.030844095128
488	2354964	3673.030596084084	0.030596084084
488	2357092	3673.078732108986	0.078732108986
488	2505725	4270.012476050487	0.012476050487
488	2506903	4270.021036089896	0.021036089896
488	2507492	4270.027692032907	0.027692032907
488	2510717	4271.022956061914	0.022956061914
488	2513065	4271.034044090026	0.034044090026
488	2514283	4271.040724116378	0.040724116378
488	2517780	4272.02103606793	0.02103606793
488	2519578	4272.053812095128	0.053812095128
488	2524162	4273.027076084083	0.027076084083
488	2525574	4273.056652108983	0.056652108983
488	2674203	4870.011516050487	0.011516050487
488	2674802	4870.015996032907	0.015996032907
488	2675989	4870.026404089897	0.026404089897
488	2680405	4871.024836090026	0.024836090026
488	2680994	4871.027364061914	0.027364061914
488	2682772	4871.039692116378	0.039692116378
488	2686582	4872.02839606793	0.02839606793
488	2687799	4872.03507609513	0.03507609513
488	2692538	4873.029564084085	0.029564084085
488	2693800	4873.060492108987	0.060492108987
488	2842570	5470.011836032907	0.011836032907
488	2843160	5470.014964050487	0.014964050487
488	2844335	5470.026404089897	0.026404089897
488	2848756	5471.024444090026	0.024444090026
488	2849348	5471.028572061913	0.028572061913
488	2851128	5471.046092116378	0.046092116378
488	2854945	5472.033156094676	0.033156094676
488	2857051	5472.062164120432	0.062164120432
488	2860939	5473.025476084083	0.025476084083
488	2862762	5473.033684108985	0.033684108985
488	3011395	6070.012796050487	0.012796050487
488	3012569	6070.020972032907	0.020972032907
488	3013180	6070.023916089897	0.023916089897
488	3016512	6071.020716061913	0.020716061913
488	3018287	6071.030844090025	0.030844090025
488	3021116	6071.083460120623	0.083460120623
488	3024966	6072.020716067929	0.020716067929
488	3026751	6072.031484095129	0.031484095129
488	3031197	6073.027076084085	0.027076084085
488	3032457	6073.035036108987	0.035036108987
488	3181692	6670.012476050487	0.012476050487
488	3183421	6670.045284089897	0.045284089897
488	3184009	6670.049132032907	0.049132032907
488	3187234	6671.020076061914	0.020076061914
488	3189584	6671.030844090025	0.030844090025
488	3190803	6671.038484116377	0.038484116377
488	3194301	6672.02007606793	0.02007606793
488	3196704	6672.051572095129	0.051572095129
488	3201166	6673.029564084085	0.029564084085
488	3202423	6673.036564108987	0.036564108987
488	3351176	7270.014716050487	0.014716050487
488	3351774	7270.018164032906	0.018164032906
488	3352958	7270.025196089897	0.025196089897
488	3358532	7271.026972061914	0.026972061914
488	3359127	7271.032156116772	0.032156116772
488	3359739	7271.03659614737	0.03659614737
488	3362982	7272.018476067929	0.018476067929
488	3364772	7272.029884095128	0.029884095128
488	3369356	7273.027076084085	0.027076084085
488	3370767	7273.057612108987	0.057612108987
491	959	1.005	1
491	1298	1.01	38
491	1794	1.015	53
491	3123	1.02	88
491	4819	1.025	58
491	6818	1.03	157
491	9573	1.035	116
491	13103	1.04	145
491	15909	1.045	123
491	18548	1.05	82
491	21162	1.055	134
491	22680	1.06	72
491	24249	1.065	113
491	25905	1.07	122
491	27078	1.075	110
491	28468	1.08	103
491	30218	1.085	123
491	31454	1.09	72
491	33328	1.095	151
491	33956	1.1	50
491	35041	1.105	67
491	36426	1.11	105
491	36559	1.115	0
491	37828	1.120060810229	105
491	38671	1.125060810229	97
491	39236	1.130060810229	68
491	40429	1.135060810229	88
491	40945	1.140060810229	49
491	41534	1.145060810229	40
491	42298	1.150060810229	78
491	43632	1.155060810229	65
491	43639	1.160060810229	0
491	44964	1.168344821277	116
491	45470	1.173344821277	53
491	45477	1.178344821277	0
491	46005	1.185272127511	58
491	46006	1.190272127511	0
491	56447	43.505	1
491	57063	43.51	55
491	59387	43.515	0
491	62023	43.52	0
491	64391	43.527396825904	0
491	66072	43.532396825904	0
491	67266	43.537396825904	0
491	69150	43.542396825904	0
491	75416	43.563112121808	0
491	76942	43.568112121808	0
491	78353	43.573112121808	0
491	81120	43.580698637796	0
491	82279	43.585698637796	0
491	83649	43.590698637796	0
491	87080	43.605388794714	0
491	88607	43.610388794714	0
491	90328	43.61565731731	0
491	91512	43.62065731731	0
491	93177	43.62565731731	0
491	94630	43.63065731731	0
491	95953	43.63565731731	0
491	97148	43.64065731731	0
491	98383	43.64565731731	0
491	100464	43.651019356929	0
491	102174	43.656019356929	0
491	103305	43.661019356929	0
491	106595	43.671538534389	0
491	107710	43.676538534389	0
491	110743	43.688293433268	0
491	111881	43.693293433268	0
491	116777	43.711922264498	0
491	118059	43.716922264498	0
491	119454	43.722364112177	0
491	120631	43.727364112177	0
491	121954	43.732364112177	0
491	123575	43.737374395674	0
491	124850	43.742374395674	0
491	126736	43.747374395674	0
491	128306	43.752374395674	0
491	129677	43.757374395674	0
491	131060	43.762374395674	0
491	132220	43.767374395674	0
491	135215	43.778446653954	0
491	135917	43.783446653954	0
491	139408	43.793767428619	0
491	140580	43.798767428619	0
491	141784	43.803767428619	0
491	144775	43.814893435005	0
491	146031	43.819893435005	0
491	147401	43.824893435005	0
491	149038	43.829893435005	0
491	150839	43.836189843333	0
491	151823	43.841189843333	0
491	154747	43.851390121176	0
491	156024	43.856390121176	0
491	157657	43.862909308515	0
491	159075	43.867909308515	0
491	160338	43.872909308515	0
491	160923	43.877909308515	0
491	162508	43.888680420406	0
491	163635	43.893680420406	0
491	164507	43.898680420406	0
491	165195	43.903680420406	0
491	167203	43.91325106889	0
491	168428	43.91825106889	0
491	169311	43.92325106889	0
491	170434	43.92825106889	0
491	171453	43.93325106889	0
491	172749	43.941755062869	0
491	173714	43.946755062869	0
491	175237	43.955280921188	0
491	176465	43.960280921188	0
491	177748	43.96667304486	0
491	178919	43.97167304486	0
491	179625	43.97667304486	0
491	180989	43.983027758898	0
491	181980	43.988027758898	0
491	182862	43.993027758898	0
491	183299	43.998027758898	0
491	184301	44.003121514792	0
491	184908	44.008121514792	0
491	185470	44.013121514792	0
491	186216	44.018917774643	0
491	186776	44.023917774643	0
491	186777	44.028917774643	0
491	188520	44.051223058933	0
491	189227	44.056223058933	0
491	190396	44.062779340309	0
491	190983	44.067779340309	0
491	191405	44.072779340309	0
491	191985	44.091123364569	0
491	191986	44.096123364569	0
491	191993	44.505	1
491	192003	44.51	0
491	194447	44.517428867907	43
491	197487	44.522428867907	0
491	199289	44.527428867907	0
491	200546	44.532428867907	0
491	201761	44.537428867907	0
491	202839	44.542428867907	0
491	204360	44.547428867907	0
491	205622	44.552428867907	0
491	206758	44.557428867907	0
491	208866	44.565936631917	0
491	209605	44.570936631917	0
491	210720	44.575936631917	0
491	212675	44.583270343311	0
491	213726	44.588270343311	0
491	215438	44.595982221976	0
491	216435	44.600982221976	0
491	218372	44.60976990123	0
491	219679	44.61476990123	0
491	221057	44.61976990123	0
491	223716	44.632402089128	0
491	224862	44.637402089128	0
491	225921	44.642402089128	0
491	228545	44.652922112488	0
491	229809	44.657922112488	0
491	230564	44.662922112488	0
491	231557	44.667922112488	0
491	233538	44.675859453502	0
491	234569	44.680859453502	0
491	237208	44.690795669392	0
491	238464	44.695795669392	0
491	240142	44.702845249504	0
491	241415	44.707845249504	0
491	242873	44.715958363394	0
491	244410	44.720958363394	0
491	245953	44.725958363394	0
491	247453	44.730958363394	0
491	248178	44.735958363394	0
491	249451	44.741847794239	0
491	250427	44.746847794239	0
491	251407	44.751847794239	0
491	252432	44.756847794239	0
491	257608	44.779029347507	0
491	258765	44.784029347507	0
491	259745	44.789029347507	0
491	261085	44.794821369166	0
491	262284	44.799821369166	0
491	263687	44.804821369166	0
491	265227	44.809821369166	0
491	266133	44.814821369166	0
491	266986	44.819821369166	0
491	267865	44.824821369166	0
491	269033	44.829821369166	0
491	270188	44.834821369166	0
491	271884	44.84224227515	0
491	273150	44.84724227515	0
491	274369	44.85224227515	0
491	275426	44.858690560618	0
491	276349	44.863690560618	0
491	277457	44.86985295684	0
491	278860	44.87485295684	0
491	280753	44.884833946249	0
491	282012	44.889833946249	0
491	283142	44.894833946249	0
491	284035	44.899833946249	0
491	285283	44.904833946249	0
491	286755	44.914445888365	0
491	287423	44.919445888365	0
491	288707	44.926210796061	0
491	289420	44.931210796061	0
491	289843	44.936210796061	0
491	292243	44.952124779533	0
491	292800	44.957124779533	0
491	294092	44.962124779533	0
491	294223	44.967124779533	0
491	294973	44.973828939889	0
491	295270	44.978828939889	0
491	296658	44.984495375851	0
491	297247	44.989495375851	0
491	297248	44.994495375851	0
491	298201	45.005594578302	0
491	298755	45.010594578302	0
491	299354	45.016098944657	0
491	299817	45.021098944657	0
491	299818	45.026098944657	0
491	299825	45.505	1
491	299961	45.51	0
491	302099	45.516073324469	39
491	303944	45.521073324469	0
491	305456	45.526073324469	0
491	308143	45.536341120418	0
491	309981	45.541341120418	0
491	311907	45.546341120418	0
491	313566	45.551341120418	0
491	316232	45.562543613824	0
491	317375	45.567543613824	0
491	318538	45.572543613824	0
491	319859	45.577543613824	0
491	321499	45.582543613824	0
491	322756	45.587543613824	0
491	324057	45.592543613824	0
491	324898	45.597543613824	0
491	326507	45.604037914962	0
491	327768	45.609037914962	0
491	329074	45.614037914962	0
491	330600	45.619037914962	0
491	334395	45.63786429717	0
491	335657	45.64286429717	0
491	336774	45.64786429717	0
491	337892	45.653776215369	0
491	339078	45.658776215369	0
491	340041	45.663776215369	0
491	342218	45.672435751506	0
491	343595	45.677435751506	0
491	345301	45.683968553794	0
491	346278	45.688968553794	0
491	347753	45.693968553794	0
491	350235	45.704357501417	0
491	351180	45.709357501417	0
491	352366	45.714883102322	0
491	354003	45.719883102322	0
491	354856	45.724883102322	0
491	355892	45.729883102322	0
491	357167	45.734883102322	0
491	358689	45.742181527947	0
491	360355	45.747181527947	0
491	361482	45.752181527947	0
491	362335	45.757181527947	0
491	363748	45.762181527947	0
491	364503	45.767181527947	0
491	365546	45.772181527947	0
491	366661	45.777181527947	0
491	370032	45.793541269926	0
491	371619	45.798541269926	0
491	373756	45.808936320348	0
491	375089	45.813936320348	0
491	375790	45.818936320348	0
491	376742	45.823936320348	0
491	377758	45.828936320348	0
491	378896	45.833936320348	0
491	379741	45.838936320348	0
491	381273	45.847112582085	0
491	381986	45.852112582085	0
491	383267	45.860358263443	0
491	384450	45.865358263443	0
491	385037	45.870358263443	0
491	385925	45.875358263443	0
491	387367	45.882640588731	0
491	387647	45.887640588731	0
491	388118	45.892793812196	0
491	388124	45.897793812196	0
491	388830	45.902793812196	0
491	390093	45.907793812196	0
491	390377	45.912793812196	0
491	391523	45.920638358776	0
491	391525	45.925638358776	0
491	392237	45.930638358776	0
491	392941	45.935638358776	0
491	392942	45.940638358776	0
491	393642	45.952583638617	0
491	394218	45.957583638617	0
491	395258	45.963199874733	0
491	395806	45.968199874733	0
491	397198	46.00962226295	0
491	397786	46.01462226295	0
491	397787	46.01962226295	0
491	397929	46.505	1
491	399017	46.51	22
491	400592	46.515	0
491	401813	46.52	0
491	403101	46.529995441961	0
491	403854	46.534995441961	0
491	404719	46.539995441961	0
491	406106	46.544995441961	0
491	407118	46.549995441961	0
491	408920	46.554995441961	0
491	409617	46.559995441961	0
491	411071	46.566011042065	0
491	411872	46.571011042065	0
491	413613	46.57902829017	0
491	415045	46.58402829017	0
491	415930	46.58902829017	0
491	416904	46.59402829017	0
491	418743	46.601715571212	0
491	419462	46.606715571212	0
491	420261	46.611715571212	0
491	421537	46.618486724621	0
491	422524	46.623486724621	0
491	423100	46.628486724621	0
491	424097	46.633486724621	0
491	427950	46.654270747668	0
491	429046	46.659270747668	0
491	429884	46.664270747668	0
491	430732	46.669270747668	0
491	431838	46.674270747668	0
491	432259	46.679270747668	0
491	433109	46.684852984079	0
491	433956	46.689852984079	0
491	434653	46.694852984079	0
491	436425	46.708692323743	0
491	436998	46.713692323743	0
491	438675	46.720539069827	0
491	439505	46.725539069827	0
491	440198	46.730539069827	0
491	441882	46.741327456673	0
491	442764	46.746327456673	0
491	443344	46.751327456673	0
491	444089	46.756327456673	0
491	445183	46.761327456673	0
491	445762	46.766327456673	0
491	448103	46.795351361557	0
491	448671	46.800351361557	0
491	449257	46.817130051285	0
491	449258	46.822130051285	0
491	450088	47.505	1
491	450685	47.51	39
491	452411	47.515	0
491	454323	47.52	0
491	456052	47.525	0
491	458049	47.53	0
491	459300	47.535	0
491	460486	47.540660485481	0
491	461239	47.545660485481	0
491	462421	47.550660485481	0
491	463433	47.555660485481	0
491	465430	47.563004481999	0
491	466574	47.568004481999	0
491	467185	47.573004481999	0
491	468633	47.578203978815	0
491	469413	47.583203978815	0
491	470998	47.588203978815	0
491	472320	47.593203978815	0
491	473484	47.598203978815	0
491	475756	47.604431169147	0
491	476759	47.609431169147	0
491	477631	47.614431169147	0
491	478663	47.619431169147	0
491	479535	47.624431169147	0
491	480883	47.629431169147	0
491	482088	47.634431169147	0
491	483241	47.639431169147	0
491	484692	47.646176735619	0
491	485683	47.651176735619	0
491	486848	47.656176735619	0
491	488892	47.664946172683	0
491	489642	47.669946172683	0
491	491063	47.674946172683	0
491	491835	47.679946172683	0
491	493123	47.684946172683	0
491	494236	47.689946172683	0
491	496412	47.697092165097	0
491	497302	47.702092165097	0
491	499461	47.712026820867	0
491	500674	47.717026820867	0
491	501423	47.722026820867	0
491	502483	47.727026820867	0
491	504988	47.737087176626	0
491	505994	47.742087176626	0
491	506861	47.747762467622	0
491	507433	47.752762467622	0
491	509214	47.761292676239	0
491	510501	47.766292676239	0
491	511837	47.774737229176	0
491	512964	47.779737229176	0
491	514170	47.786830895409	0
491	515122	47.791830895409	0
491	515849	47.79777819795	0
491	516828	47.80277819795	0
491	519268	47.814098829907	0
491	520711	47.819098829907	0
491	521311	47.824098829907	0
491	523675	47.836561446141	0
491	524898	47.841561446141	0
491	525892	47.846561446141	0
491	528074	47.858138817505	0
491	529073	47.863138817505	0
491	530654	47.868138817505	0
491	531743	47.873138817505	0
491	532640	47.878138817505	0
491	533221	47.883138817505	0
491	533806	47.888138817505	0
491	534421	47.893138817505	0
491	535299	47.898138817505	0
491	536190	47.903138817505	0
491	537257	47.909869303908	0
491	537258	47.914869303908	0
491	537956	47.928124422304	0
491	538675	47.933124422304	0
491	538676	47.938124422304	0
491	539249	47.951441935579	0
491	539847	47.956441935579	0
491	539848	47.961441935579	0
491	540443	47.986769853693	0
491	540573	47.991769853693	0
491	541036	47.997513864856	0
491	541278	48.002513864856	0
491	542487	48.053377889634	0
491	543056	48.058377889634	0
491	543063	48.505	1
491	543199	48.51	0
491	544973	48.515552540348	32
491	546345	48.520552540348	0
491	547913	48.525552540348	0
491	549782	48.530552540348	0
491	550506	48.535552540348	0
491	551710	48.540552540348	0
491	552908	48.545552540348	0
491	554728	48.550552540348	0
491	555608	48.555552540348	0
491	557010	48.560552540348	0
491	557850	48.565552540348	0
491	559517	48.573043869004	0
491	560694	48.578043869004	0
491	561861	48.583043869004	0
491	562717	48.588043869004	0
491	563718	48.593043869004	0
491	566976	48.606032543263	0
491	567982	48.611032543263	0
491	569156	48.616032543263	0
491	570139	48.621032543263	0
491	571001	48.626032543263	0
491	572866	48.635147889868	0
491	573605	48.640147889868	0
491	574869	48.645147889868	0
491	575860	48.650147889868	0
491	576464	48.655147889868	0
491	578044	48.662545064431	0
491	579071	48.667545064431	0
491	580435	48.672545064431	0
491	581592	48.677545064431	0
491	583798	48.692287901619	0
491	585336	48.697287901619	0
491	586610	48.704727702182	0
491	587659	48.709727702182	0
491	588272	48.714727702182	0
491	589273	48.719727702182	0
491	590456	48.724727702182	0
491	591272	48.729727702182	0
491	593574	48.743408971429	0
491	594919	48.748408971429	0
491	595955	48.753408971429	0
491	597620	48.762015856556	0
491	598764	48.767015856556	0
491	599925	48.772015856556	0
491	601486	48.779671471316	0
491	602487	48.784671471316	0
491	603069	48.789671471316	0
491	603512	48.794671471316	0
491	604279	48.799671471316	0
491	604973	48.804671471316	0
491	606051	48.818039286443	0
491	606867	48.823039286443	0
491	607887	48.844567512898	0
491	608611	48.849567512898	0
491	609777	48.854567512898	0
491	610497	48.859567512898	0
491	611079	48.864567512898	0
491	611664	48.87109944792	0
491	612675	48.87609944792	0
491	613248	48.88109944792	0
491	613249	48.88609944792	0
491	613687	49.505	1
491	614569	49.51	34
491	616488	49.515	0
491	618726	49.52	0
491	620450	49.525	0
491	621591	49.53	0
491	622817	49.535	0
491	624097	49.54	0
491	625638	49.545	0
491	626922	49.55	0
491	628606	49.557566450673	0
491	629780	49.562566450673	0
491	630646	49.567566450673	0
491	632119	49.57306329346	0
491	633541	49.57806329346	0
491	635127	49.58306329346	0
491	636268	49.58806329346	0
491	637272	49.59306329346	0
491	638567	49.59806329346	0
491	639820	49.60306329346	0
491	640857	49.60806329346	0
491	641856	49.61306329346	0
491	642873	49.61806329346	0
491	643602	49.62306329346	0
491	645530	49.63012211394	0
491	646400	49.63512211394	0
491	647163	49.64012211394	0
491	648063	49.64512211394	0
491	649072	49.65012211394	0
491	651060	49.659900798412	0
491	651668	49.664900798412	0
491	652671	49.669900798412	0
491	654915	49.678589070857	0
491	655821	49.683589070857	0
491	656849	49.688589070857	0
491	658551	49.693589070857	0
491	659562	49.698589070857	0
491	660442	49.703589070857	0
491	663209	49.718884167807	0
491	664100	49.723884167807	0
491	665204	49.728884167807	0
491	666500	49.734750206875	0
491	667418	49.739750206875	0
491	668286	49.744750206875	0
491	669714	49.752256076414	0
491	670474	49.757256076414	0
491	671306	49.762256076414	0
491	672905	49.772429192101	0
491	673463	49.777429192101	0
491	674471	49.782429192101	0
491	675887	49.787429192101	0
491	676730	49.792429192101	0
491	678009	49.797429192101	0
491	679572	49.803861372708	0
491	680459	49.808861372708	0
491	681903	49.818846661992	0
491	682930	49.823846661992	0
491	683924	49.828846661992	0
491	685832	49.841890092799	0
491	686574	49.846890092799	0
491	687766	49.851890092799	0
491	688490	49.856890092799	0
491	689107	49.861890092799	0
491	689724	49.866890092799	0
491	690333	49.871890092799	0
491	690464	49.876890092799	0
491	691364	49.881890092799	0
491	691520	49.886890092799	0
491	692116	49.90572674076	0
491	692117	49.91072674076	0
491	692543	50.505	1
491	693508	50.51	28
491	695208	50.515	0
491	696826	50.52	0
491	698426	50.525	0
491	699736	50.53	0
491	701659	50.535	0
491	702826	50.54	0
491	703706	50.545	0
491	705141	50.551040880468	0
491	705879	50.556040880468	0
491	706588	50.561040880468	0
491	708380	50.569798082469	0
491	709580	50.574798082469	0
491	710503	50.579798082469	0
491	712188	50.584798082469	0
491	713470	50.589798082469	0
491	714593	50.594798082469	0
491	715797	50.602501596555	0
491	716231	50.607501596555	0
491	716935	50.612501596555	0
491	718198	50.617501596555	0
491	720324	50.626966984375	0
491	721575	50.631966984375	0
491	722832	50.636966984375	0
491	725568	50.648719851039	0
491	726700	50.653719851039	0
491	727916	50.660196154513	0
491	729458	50.665196154513	0
491	730473	50.670196154513	0
491	731161	50.675196154513	0
491	732321	50.680196154513	0
491	733629	50.685196154513	0
491	734421	50.690196154513	0
491	735130	50.695196154513	0
491	736462	50.701052364372	0
491	737217	50.706052364372	0
491	738671	50.711273713425	0
491	739243	50.716273713425	0
491	740411	50.721273713425	0
491	742525	50.732543258189	0
491	743404	50.737543258189	0
491	743989	50.742543258189	0
491	744123	50.747543258189	0
491	745817	50.757808184171	0
491	746877	50.762808184171	0
491	747612	50.767808184171	0
491	748200	50.772808184171	0
491	749364	50.777967708252	0
491	749931	50.782967708252	0
491	750948	50.789140107486	0
491	751533	50.794140107486	0
491	752113	50.799140107486	0
491	752685	50.804140107486	0
491	753275	50.812872241975	0
491	753405	50.817872241975	0
491	753853	50.823961731114	0
491	753860	50.828961731114	0
491	754432	50.835887695476	0
491	754433	50.840887695476	0
491	755031	50.89495172379	0
491	755032	50.89995172379	0
491	755325	51.505	1
491	756091	51.51	66
491	759399	51.515	0
491	761546	51.52	0
491	764288	51.527974298086	0
491	766105	51.532974298086	0
491	768740	51.537974298086	0
491	770816	51.542974298086	0
491	772600	51.547974298086	0
491	776714	51.562384668148	0
491	778616	51.567384668148	0
491	780222	51.572384668148	0
491	782115	51.577384668148	0
491	786696	51.592539115207	0
491	788304	51.597539115207	0
491	795622	51.621434256021	0
491	796731	51.626434256021	0
491	799846	51.635421347368	0
491	801614	51.640421347368	0
491	802995	51.645421347368	0
491	806350	51.654802855181	0
491	808114	51.659802855181	0
491	809826	51.664802855181	0
491	814641	51.676685410611	0
491	816622	51.681685410611	0
491	822533	51.699331240717	0
491	824094	51.704331240717	0
491	826336	51.709436298007	0
491	828422	51.714436298007	0
491	830207	51.719436298007	0
491	832790	51.726747384503	0
491	834515	51.731747384503	0
491	838050	51.742734620288	0
491	839544	51.747734620288	0
491	841461	51.752734620288	0
491	843138	51.757734620288	0
491	845173	51.762734620288	0
491	846674	51.767734620288	0
491	848952	51.77596125754	0
491	850185	51.78096125754	0
491	851792	51.78596125754	0
491	853967	51.79096125754	0
491	855481	51.79596125754	0
491	857243	51.801610723427	0
491	858419	51.806610723427	0
491	860924	51.817154214917	0
491	862277	51.822154214917	0
491	863888	51.827154214917	0
491	865379	51.832154214917	0
491	867315	51.839042407858	0
491	868813	51.844042407858	0
491	871220	51.849042407858	0
491	872837	51.854042407858	0
491	874579	51.859042407858	0
491	875881	51.864042407858	0
491	877445	51.870225632187	0
491	879147	51.875225632187	0
491	880728	51.880225632187	0
491	881907	51.885225632187	0
491	883535	51.890225632187	0
491	885422	51.895225632187	0
491	886752	51.900225632187	0
491	890207	51.913106534343	0
491	891876	51.918106534343	0
491	893921	51.924687164994	0
491	895065	51.929687164994	0
491	897678	51.939470235505	0
491	899569	51.944470235505	0
491	901175	51.949470235505	0
491	902352	51.954470235505	0
491	903398	51.959470235505	0
491	905329	51.966736618097	0
491	906902	51.971736618097	0
491	907762	51.976736618097	0
491	909348	51.981736618097	0
491	910641	51.986736618097	0
491	911401	51.991736618097	0
491	912770	51.996736618097	0
491	914349	52.001736618097	0
491	916364	52.010467362746	0
491	917556	52.015467362746	0
491	918489	52.020467362746	0
491	919402	52.025467362746	0
491	920680	52.030467362746	0
491	924046	52.048980845881	0
491	925192	52.053980845881	0
491	925948	52.058980845881	0
491	926700	52.066319039131	0
491	927320	52.071319039131	0
491	928368	52.076319039131	0
491	929992	52.081319039131	0
491	930770	52.086319039131	0
491	931544	52.091319039131	0
491	932272	52.096319039131	0
491	933596	52.10319425141	0
491	934671	52.10819425141	0
491	935294	52.11319425141	0
491	936014	52.11819425141	0
491	936503	52.12319425141	0
491	937110	52.130674850411	0
491	937114	52.135674850411	0
491	937709	52.14365015001	0
491	937710	52.14865015001	0
491	937717	52.505	1
491	937727	52.51	0
491	940605	52.517242192944	50
491	942870	52.522242192944	0
491	945111	52.527242192944	0
491	947623	52.532242192944	0
491	950310	52.537242192944	0
491	951649	52.542242192944	0
491	954118	52.547242192944	0
491	955886	52.552242192944	0
491	957522	52.557242192944	0
491	959026	52.562242192944	0
491	961689	52.570309785842	0
491	963297	52.575309785842	0
491	964716	52.580309785842	0
491	965744	52.585309785842	0
491	967187	52.590309785842	0
491	971994	52.602889114332	0
491	973196	52.607889114332	0
491	974414	52.612889114332	0
491	976367	52.621445987405	0
491	978305	52.626445987405	0
491	979633	52.631445987405	0
491	981448	52.63832328917	0
491	982897	52.64332328917	0
491	985471	52.650826649338	0
491	986896	52.655826649338	0
491	988285	52.660826649338	0
491	988886	52.665826649338	0
491	990623	52.670826649338	0
491	993777	52.681934995656	0
491	995502	52.686934995656	0
491	996823	52.691934995656	0
491	997553	52.696934995656	0
491	999138	52.701934995656	0
491	1000809	52.706934995656	0
491	1001973	52.711934995656	0
491	1006431	52.734468240126	0
491	1007868	52.739468240126	0
491	1010382	52.748945653586	0
491	1012243	52.753945653586	0
491	1013987	52.758945653586	0
491	1015221	52.763945653586	0
491	1017698	52.773846466434	0
491	1018871	52.778846466434	0
491	1020922	52.785324800593	0
491	1022445	52.790324800593	0
491	1023366	52.795324800593	0
491	1025158	52.800480995645	0
491	1026510	52.805480995645	0
491	1028012	52.810480995645	0
491	1029173	52.815480995645	0
491	1029779	52.820480995645	0
491	1031503	52.829652217632	0
491	1032865	52.834652217632	0
491	1034799	52.844005289981	0
491	1035549	52.849005289981	0
491	1036408	52.854005289981	0
491	1037699	52.859005289981	0
491	1038343	52.864005289981	0
491	1039349	52.869005289981	0
491	1040869	52.875771608451	0
491	1041736	52.880771608451	0
491	1042837	52.885771608451	0
491	1043691	52.890771608451	0
491	1044989	52.895771608451	0
491	1046747	52.900771608451	0
491	1048058	52.905771608451	0