file 262469 1353024022                                          
version 2
run AODVScenario_1f-26-20121115-23:59:50-976
attr configname AODVScenario_1f
attr datetime 20121115-23:59:50
attr experiment AODVScenario_1f
attr inifile AODV.ini
attr iterationvars $numNodes=76
attr iterationvars2 "$numNodes=76, $repetition=0"
attr measurement $numNodes=76
attr network csma802154net
attr numNodes 76
attr processid 976
attr repetition 0
attr replication #0
attr resultdir results
attr runnumber 26
attr seedset 26

vector 315  csma802154net.dataCentricNetworkMan  RREQPacketFrequency  ETV
vector 316  csma802154net.dataCentricNetworkMan  RERRPacketFrequency  ETV
vector 317  csma802154net.dataCentricNetworkMan  DiscoveryPacketFrequency  ETV
vector 318  csma802154net.dataCentricNetworkMan  RegisterPacketFrequency  ETV
vector 319  csma802154net.dataCentricNetworkMan  RReplyPacketFrequency  ETV
vector 320  csma802154net.dataCentricNetworkMan  AODVDataPacketFrequency  ETV
vector 327  csma802154net.dataCentricNetworkMan  pendingRegistrationVector  ETV
vector 326  csma802154net.dataCentricNetworkMan  pendingRREQVector  ETV
vector 324  csma802154net.dataCentricNetworkMan  PendingDataPacketsVector  ETV
vector 338  csma802154net.fixhost[10].udpApp  "End-to-end delay"  ETV
vector 312  csma802154net.dataCentricNetworkMan  dataPacketE2EDelay  ETV
vector 340  csma802154net.fixhost[12].udpApp  "End-to-end delay"  ETV
vector 341  csma802154net.fixhost[13].udpApp  "End-to-end delay"  ETV
vector 347  csma802154net.fixhost[19].udpApp  "End-to-end delay"  ETV
vector 349  csma802154net.fixhost[21].udpApp  "End-to-end delay"  ETV
vector 350  csma802154net.fixhost[22].udpApp  "End-to-end delay"  ETV
vector 342  csma802154net.fixhost[14].udpApp  "End-to-end delay"  ETV
vector 333  csma802154net.fixhost[5].udpApp  "End-to-end delay"  ETV
vector 330  csma802154net.fixhost[2].udpApp  "End-to-end delay"  ETV
vector 331  csma802154net.fixhost[3].udpApp  "End-to-end delay"  ETV
vector 335  csma802154net.fixhost[7].udpApp  "End-to-end delay"  ETV
312	2012 6468 734025 2056894 70.016276056361 7273.047340080799 143 0.014356044801 0.142868127989 5.221185426443 0.2307049692778
315	8480 38976 601 2057096 1.005 7273.057340080799 1373 0 94 1596 89488
316	47456 38942 601 2057096 1.005 7273.057340080799 1373 0 0 0 0
317	86398 38942 601 2057096 1.005 7273.057340080799 1373 0 0 0 0
318	125340 38942 601 2057096 1.005 7273.057340080799 1373 0 1 12 12
319	164282 38955 601 2057096 1.005 7273.057340080799 1373 0 104 1578 66146
320	203237 38962 601 2057096 1.005 7273.057340080799 1373 0 103 1390 48316
324	242199 11992 732574 2056894 70 7273.047340080799 390 0 3 455 871
326	254191 1256 24313 677013 43.50001 54.561739612878 45 0 1 18 18
327	255447 554 24308 729768 43.5 54.968029654196 23 0 2 20 28
330	256001 574 746253 2056894 73.0286760808 7273.047340080799 13 0.024836080798 0.0554120808 0.451269152849 0.016689042346174
331	256575 592 747012 2055238 73.052924100348 7273.028924100348 13 0.023556100348 0.058292100347 0.533701304522 0.02375636485539
333	257167 584 743071 2051474 72.065044098569 7272.027996098571 13 0.027996098571 0.065044098569 0.490197281411 0.019665682509397
335	257751 588 748250 2056476 73.065892127991 7273.038124127991 13 0.038124127991 0.142868127989 0.823525691044 0.061059389031743
338	258339 592 734025 2042481 70.016276056361 7270.015956056363 13 0.015316056363 0.035260056363 0.270924732715 0.0060485053720747
340	258931 592 734797 2043801 70.024804094496 7270.049372094497 13 0.020076094497 0.049372094497 0.375965228458 0.011942184286907
341	259523 588 735582 2044210 70.03525212205 7270.054772122052 13 0.02636412205 0.054772122052 0.504933586669 0.020825143111633
342	260111 592 742671 2051845 72.061596123133 7272.029596123133 13 0.029276123134 0.061596123133 0.523197600737 0.023256042142246
347	260703 592 737353 2046908 71.020436044802 7271.023244044802 13 0.014356044801 0.035644089076 0.285548715246 0.0068212018989472
349	261295 582 738117 2046498 71.029604066821 7271.02103606682 13 0.02103606682 0.04784406682 0.386028868666 0.012371541845215
350	261877 592 738899 2047695 71.035324092845 7271.053244092844 13 0.025476092845 0.076212092844 0.575893264126 0.028269871878077
