version 2
run AODVScenario_1f-27-20121119-11:13:14-2876
attr configname AODVScenario_1f
attr datetime 20121119-11:13:14
attr experiment AODVScenario_1f
attr inifile AODV.ini
attr iterationvars $numNodes=77
attr iterationvars2 "$numNodes=77, $repetition=0"
attr measurement $numNodes=77
attr network csma802154net
attr numNodes 77
attr processid 2876
attr repetition 0
attr replication #0
attr resultdir results
attr runnumber 27
attr seedset 27

vector 319  csma802154net.dataCentricNetworkMan  RREQPacketFrequency  ETV
vector 320  csma802154net.dataCentricNetworkMan  RERRPacketFrequency  ETV
vector 321  csma802154net.dataCentricNetworkMan  DiscoveryPacketFrequency  ETV
vector 322  csma802154net.dataCentricNetworkMan  RegisterPacketFrequency  ETV
vector 323  csma802154net.dataCentricNetworkMan  RReplyPacketFrequency  ETV
vector 324  csma802154net.dataCentricNetworkMan  AODVDataPacketFrequency  ETV
vector 331  csma802154net.dataCentricNetworkMan  pendingRegistrationVector  ETV
vector 330  csma802154net.dataCentricNetworkMan  pendingRREQVector  ETV
vector 328  csma802154net.dataCentricNetworkMan  PendingDataPacketsVector  ETV
vector 339  csma802154net.fixhost[7].udpApp  "End-to-end delay"  ETV
vector 316  csma802154net.dataCentricNetworkMan  dataPacketE2EDelay  ETV
vector 333  csma802154net.fixhost[1].udpApp  "End-to-end delay"  ETV
vector 338  csma802154net.fixhost[6].udpApp  "End-to-end delay"  ETV
vector 336  csma802154net.fixhost[4].udpApp  "End-to-end delay"  ETV
vector 345  csma802154net.fixhost[13].udpApp  "End-to-end delay"  ETV
vector 347  csma802154net.fixhost[15].udpApp  "End-to-end delay"  ETV
vector 340  csma802154net.fixhost[8].udpApp  "End-to-end delay"  ETV
vector 346  csma802154net.fixhost[14].udpApp  "End-to-end delay"  ETV
vector 354  csma802154net.fixhost[22].udpApp  "End-to-end delay"  ETV
vector 342  csma802154net.fixhost[10].udpApp  "End-to-end delay"  ETV
316	501002	70.036316119713	0.036316119713
316	501790	70.042292079214	0.042292079214
316	502179	70.047732094629	0.047732094629
316	504398	71.019084056885	0.019084056885
316	505223	71.028284111526	0.028284111526
316	506067	71.041324145593	0.041324145593
316	507036	72.008996013194	0.008996013194
316	507428	72.012796032239	0.012796032239
316	509580	73.042124044431	0.042124044431
316	510531	73.071740043098	0.071740043098
316	607585	670.026756079215	0.026756079215
316	608375	670.035572094632	0.035572094632
316	608759	670.038732119713	0.038732119713
316	610975	671.020116056885	0.020116056885
316	611580	671.0283240866	0.0283240866
316	612835	671.055764118378	0.055764118378
316	613805	672.010276013195	0.010276013195
316	614196	672.01503603224	0.01503603224
316	615977	673.014036044432	0.014036044432
316	616364	673.019404043098	0.019404043098
316	713203	1270.025476079216	0.025476079216
316	714387	1270.054164119714	0.054164119714
316	714789	1270.063020094632	0.063020094632
316	717009	1271.022924056885	0.022924056885
316	717832	1271.030524111527	0.030524111527
316	718675	1271.040684145595	0.040684145595
316	719644	1272.008356013194	0.008356013194
316	720036	1272.013436032239	0.013436032239
316	721818	1273.016596043099	0.016596043099
316	722202	1273.020044044432	0.020044044432
316	819152	1870.029316079216	0.029316079216
316	819898	1870.03407609509	0.03407609509
316	821056	1870.062764120173	0.062764120173
316	823458	1871.0223160866	0.0223160866
316	823863	1871.024524056885	0.024524056885
316	825114	1871.054804118378	0.054804118378
316	826083	1872.006756013194	0.006756013194
316	826475	1872.010236032238	0.010236032238
316	828260	1873.015316043099	0.015316043099
316	828640	1873.017804044432	0.017804044432
316	925333	2470.026116094632	0.026116094632
316	926108	2470.031764119714	0.031764119714
316	926900	2470.042932079216	0.042932079216
316	929288	2471.024876086601	0.024876086601
316	931890	2471.100788056885	0.100788056885
316	932914	2471.108420120669	0.108420120669
316	934288	2472.007716013195	0.007716013195
316	934680	2472.01119603224	0.01119603224
316	936463	2473.017556044432	0.017556044432
316	936849	2473.022924043099	0.022924043099
316	1033940	3070.033724094632	0.033724094632
316	1034709	3070.038132079215	0.038132079215
316	1035089	3070.040972119714	0.040972119714
316	1037068	3071.020436056885	0.020436056885
316	1038316	3071.055484111527	0.055484111527
316	1039159	3071.067244145595	0.067244145595
316	1040128	3072.009956013195	0.009956013195
316	1040520	3072.01375603224	0.01375603224
316	1042302	3073.018516043098	0.018516043098
316	1042686	3073.024844044432	0.024844044432
316	1140231	3670.033724079216	0.033724079216
316	1140807	3670.038164119714	0.038164119714
316	1141986	3670.064620094632	0.064620094632
316	1144217	3671.0197560866	0.0197560866
316	1145475	3671.031124118376	0.031124118376
316	1145873	3671.035260056884	0.035260056884
316	1146847	3672.010916013195	0.010916013195
316	1147239	3672.01599603224	0.01599603224
316	1149021	3673.016276043099	0.016276043099
316	1149404	3673.019404044431	0.019404044431
316	1246094	4270.02547609463	0.02547609463
316	1247055	4270.033684119712	0.033684119712
316	1248243	4270.059500079214	0.059500079214
316	1250870	4271.024196111524	0.024196111524
316	1251702	4271.034196056884	0.034196056884
316	1252115	4271.03659614559	0.03659614559
316	1253084	4272.009636013194	0.009636013194
316	1253476	4272.014396032239	0.014396032239
316	1255628	4273.039244043098	0.039244043098
316	1256012	4273.04557204443	0.04557204443
316	1352768	4870.030596079215	0.030596079215
316	1353673	4870.060852094631	0.060852094631
316	1354451	4870.072260119713	0.072260119713
316	1356257	4871.019476056885	0.019476056885
316	1357080	4871.0251240866	0.0251240866
316	1358333	4871.039124118377	0.039124118377
316	1359302	4872.008676013195	0.008676013195
316	1359694	4872.01215603224	0.01215603224
316	1361476	4873.014036044432	0.014036044432
316	1361862	4873.019404043099	0.019404043099
316	1458778	5470.026756079215	0.026756079215
316	1459576	5470.050044094632	0.050044094632
316	1460354	5470.059212119714	0.059212119714
316	1463002	5471.026436111527	0.026436111527
316	1463411	5471.032452056885	0.032452056885
316	1464251	5471.040044145595	0.040044145595
316	1465220	5472.006756013195	0.006756013195
316	1465612	5472.01055603224	0.01055603224
316	1467394	5473.017556044432	0.017556044432
316	1468345	5473.049412043099	0.049412043099
316	1565182	6070.025476079216	0.025476079216
316	1566380	6070.053172094631	0.053172094631
316	1566761	6070.055372119713	0.055372119713
316	1569159	6071.023276086601	0.023276086601
316	1569565	6071.025876056885	0.025876056885
316	1570816	6071.055764118378	0.055764118378
316	1571785	6072.007396013195	0.007396013195
316	1572177	6072.01247603224	0.01247603224
316	1573959	6073.018516044431	0.018516044431
316	1574342	6073.021076043098	0.021076043098
316	1671781	6670.034004119713	0.034004119713
316	1672185	6670.05164409463	0.05164409463
316	1672972	6670.065260079215	0.065260079215
316	1674763	6671.016916056884	0.016916056884
316	1675595	6671.0260840866	0.0260840866
316	1676848	6671.038732118378	0.038732118378
316	1677817	6672.008676013194	0.008676013194
316	1678209	6672.012476032239	0.012476032239
316	1680363	6673.044044044431	0.044044044431
316	1680748	6673.048772043098	0.048772043098
316	1777664	7270.025156079216	0.025156079216
316	1778939	7270.053812094631	0.053812094631
316	1779406	7270.079052119714	0.079052119714
316	1782057	7271.028996111527	0.028996111527
316	1782458	7271.030852056885	0.030852056885
316	1783297	7271.041716145595	0.041716145595
316	1784266	7272.008036013195	0.008036013195
316	1784658	7272.01183603224	0.01183603224
316	1786437	7273.017236044432	0.017236044432
316	1786823	7273.020436043098	0.020436043098
319	609	1.005	1
319	619	1.01	0
319	1407	1.017859415102	67
319	2341	1.022859415102	45
319	3817	1.027859415102	82
319	5490	1.032859415102	62
319	7194	1.037859415102	83
319	8954	1.042859415102	47
319	10160	1.047859415102	57
319	11334	1.052859415102	70
319	12017	1.057859415102	36
319	12947	1.062859415102	54
319	13656	1.067859415102	44
319	14085	1.072859415102	38
319	14419	1.077859415102	35
319	14611	1.082859415102	24
319	14784	1.087859415102	0
319	15359	1.093042041555	53
319	15610	1.098042041555	18
319	15910	1.103042041555	29
319	16356	1.108042041555	41
319	16677	1.113042041555	32
319	17154	1.118042041555	49
319	17384	1.123042041555	15
319	17385	1.128042041555	0
319	24079	43.505	1
319	24086	43.51	0
319	24941	43.51922076988	12
319	25714	43.52422076988	0
319	26231	43.52922076988	0
319	26988	43.534324785062	0
319	27558	43.539324785062	0
319	27931	43.544324785062	0
319	28488	43.549324785062	0
319	29009	43.554324785062	0
319	30271	43.563534231208	0
319	30632	43.568534231208	0
319	31184	43.573598248304	0
319	31369	43.578598248304	0
319	32000	43.585206467351	0
319	32362	43.590206467351	0
319	33075	43.595206467351	0
319	33428	43.600206467351	0
319	33886	43.605206467351	0
319	34071	43.610373854818	0
319	34428	43.615373854818	0
319	34615	43.620373854818	0
319	34961	43.625605541135	0
319	35239	43.630605541135	0
319	36490	43.652422487319	0
319	36495	43.657422487319	0
319	37195	43.670061872237	0
319	37196	43.675061872237	0
319	37564	43.691124641621	0
319	37565	43.696124641621	0
319	38197	43.723628658884	0
319	38296	43.728628658884	0
319	38659	43.758253716641	0
319	38660	43.763253716641	0
319	38822	44.505	1
319	38829	44.51	0
319	40046	44.519169133324	19
319	40987	44.524169133324	0
319	41932	44.5298902811	0
319	42720	44.5348902811	0
319	43089	44.5398902811	0
319	43943	44.5448902811	0
319	45119	44.5498902811	0
319	45958	44.5548902811	0
319	47296	44.565503400777	0
319	47673	44.570503400777	0
319	48416	44.577516079429	0
319	49143	44.582516079429	0
319	49431	44.587516079429	0
319	50448	44.592735084273	0
319	51358	44.597735084273	0
319	52663	44.606439484712	0
319	53493	44.611439484712	0
319	54029	44.616439484712	0
319	54592	44.622703768942	0
319	55142	44.627703768942	0
319	55900	44.632703768942	0
319	56186	44.637703768942	0
319	56874	44.642720139419	0
319	57576	44.647720139419	0
319	59323	44.665346864582	0
319	60046	44.670346864582	0
319	61349	44.680487467596	0
319	61981	44.685487467596	0
319	62592	44.690487467596	0
319	63329	44.700815419298	0
319	63698	44.705815419298	0
319	64049	44.710815419298	0
319	64142	44.715815419298	0
319	65157	44.720815419298	0
319	65608	44.725815419298	0
319	65897	44.730815419298	0
319	65901	44.735815419298	0
319	66347	44.743398503989	0
319	66815	44.748398503989	0
319	66996	44.753398503989	0
319	67913	44.766718524472	0
319	68268	44.771718524472	0
319	68269	44.776718524472	0
319	68905	44.794185534251	0
319	69002	44.799185534251	0
319	69557	45.505	26
319	70749	45.51	0
319	71944	45.515	0
319	72888	45.52	0
319	73650	45.525	0
319	74304	45.53	0
319	75304	45.535	0
319	76040	45.540261463478	0
319	76807	45.545261463478	0
319	77556	45.550261463478	0
319	78018	45.555261463478	0
319	79119	45.561529815589	0
319	79935	45.566529815589	0
319	80668	45.571529815589	0
319	81490	45.576529815589	0
319	82155	45.581529815589	0
319	83111	45.586529815589	0
319	83852	45.591529815589	0
319	85043	45.596529815589	0
319	85678	45.601529815589	0
319	87040	45.6132471135	0
319	87948	45.6182471135	0
319	88519	45.6232471135	0
319	89073	45.6282471135	0
319	89538	45.6332471135	0
319	90228	45.640059967038	0
319	90870	45.645059967038	0
319	92274	45.653879355579	0
319	92816	45.658879355579	0
319	93555	45.664285486635	0
319	94019	45.669285486635	0
319	94494	45.674285486635	0
319	95900	45.692223384286	0
319	96446	45.697223384286	0
319	96907	45.702223384286	0
319	97592	45.707223384286	0
319	98317	45.712223384286	0
319	98321	45.717223384286	0
319	99041	45.722947381117	0
319	99675	45.727947381117	0
319	100061	45.732947381117	0
319	100824	45.737947381117	0
319	101495	45.742947381117	0
319	101871	45.747947381117	0
319	102234	45.752947381117	0
319	102235	45.757947381117	0
319	103071	45.773529115637	0
319	103357	45.778529115637	0
319	103358	45.783529115637	0
319	104493	45.825658731868	0
319	104494	45.830658731868	0
319	105184	45.839602752938	0
319	105456	45.844602752938	0
319	105828	45.864971259322	0
319	105829	45.869971259322	0
319	106083	46.505	1
319	107134	46.51	31
319	108645	46.515	0
319	109774	46.52	0
319	110832	46.525	0
319	111749	46.53	0
319	112589	46.535	0
319	114138	46.54	0
319	115060	46.545	0
319	116076	46.55	0
319	116910	46.555	0
319	117767	46.56	0
319	118708	46.565	0
319	119197	46.57	0
319	120658	46.575064466579	0
319	121848	46.580064466579	0
319	123074	46.586291179996	0
319	123466	46.591291179996	0
319	124430	46.596540621757	0
319	125373	46.601540621757	0
319	126362	46.607549508041	0
319	127211	46.612549508041	0
319	128725	46.624789522211	0
319	129741	46.629789522211	0
319	131398	46.644553701037	0
319	131881	46.649553701037	0
319	134504	46.669620649672	0
319	135102	46.674620649672	0
319	136020	46.679620649672	0
319	136608	46.684620649672	0
319	137458	46.689620649672	0
319	138121	46.694620649672	0
319	138817	46.699620649672	0
319	139470	46.704620649672	0
319	140140	46.709620649672	0
319	140808	46.714620649672	0
319	141345	46.719620649672	0
319	142046	46.725800493584	0
319	142826	46.730800493584	0
319	143117	46.735800493584	0
319	143710	46.740800493584	0
319	144299	46.745800493584	0
319	144858	46.750800493584	0
319	145328	46.755800493584	0
319	146420	46.763454988896	0
319	146805	46.768454988896	0
319	147202	46.773454988896	0
319	147293	46.778454988896	0
319	147901	46.783798544969	0
319	148821	46.788798544969	0
319	149521	46.795402044004	0
319	149891	46.800402044004	0
319	149985	46.805402044004	0
319	151016	46.812966036915	0
319	151106	46.817966036915	0
319	151785	46.824298789785	0
319	152165	46.829298789785	0
319	152722	46.838070366832	0
319	153117	46.843070366832	0
319	153121	46.848070366832	0
319	154046	46.86446074144	0
319	154047	46.86946074144	0
319	154429	46.891648994988	0
319	154430	46.896648994988	0
319	154592	47.505	1
319	154602	47.51	0
319	156324	47.518011649122	36
319	157610	47.523011649122	0
319	158696	47.528011649122	0
319	159940	47.533011649122	0
319	161441	47.538011649122	0
319	162586	47.543011649122	0
319	163453	47.548011649122	0
319	164323	47.553011649122	0
319	165112	47.558011649122	0
319	166099	47.563011649122	0
319	167234	47.568011649122	0
319	168341	47.573011649122	0
319	169473	47.578011649122	0
319	170487	47.583011649122	0
319	173777	47.604749094469	0
319	174820	47.609749094469	0
319	175446	47.614749094469	0
319	176107	47.619749094469	0
319	176987	47.624749094469	0
319	177745	47.629749094469	0
319	179368	47.64028824687	0
319	180156	47.64528824687	0
319	180912	47.65028824687	0
319	181917	47.65528824687	0
319	182707	47.66028824687	0
319	183450	47.66528824687	0
319	184131	47.672495566524	0
319	185063	47.677495566524	0
319	186065	47.682495566524	0
319	186729	47.687495566524	0
319	187620	47.692966182583	0
319	188267	47.697966182583	0
319	189122	47.702966182583	0
319	191005	47.715143107859	0
319	191656	47.720143107859	0
319	192348	47.725423990045	0
319	193463	47.730423990045	0
319	194230	47.735423990045	0
319	194788	47.740423990045	0
319	195257	47.745423990045	0
319	196178	47.750423990045	0
319	196579	47.755423990045	0
319	197517	47.760423990045	0
319	198282	47.765423990045	0
319	199522	47.771200260477	0
319	200365	47.776200260477	0
319	201306	47.78302774841	0
319	201778	47.78802774841	0
319	202416	47.795913176435	0
319	202921	47.800913176435	0
319	203518	47.805913176435	0
319	204288	47.810913176435	0
319	205033	47.815913176435	0
319	205913	47.820913176435	0
319	206477	47.825913176435	0
319	207555	47.836773385211	0
319	207926	47.841773385211	0
319	208495	47.846773385211	0
319	209091	47.851773385211	0
319	209487	47.856773385211	0
319	210586	48.505	1
319	210593	48.51	0
319	212176	48.519115024202	31
319	213503	48.524115024202	0
319	214739	48.529115024202	0
319	215888	48.534115024202	0
319	216790	48.539115024202	0
319	217552	48.544115024202	0
319	220193	48.560554506254	0
319	221009	48.565554506254	0
319	221583	48.570554506254	0
319	222753	48.575839002425	0
319	224130	48.580839002425	0
319	225213	48.585839002425	0
319	225918	48.591355155926	0
319	226829	48.596355155926	0
319	227427	48.601355155926	0
319	228892	48.61244359005	0
319	229559	48.61744359005	0
319	230148	48.62244359005	0
319	231729	48.630419183576	0
319	232755	48.635419183576	0
319	233355	48.640419183576	0
319	234569	48.652020290975	0
319	235399	48.657020290975	0
319	236274	48.662020290975	0
319	237236	48.667020290975	0
319	237938	48.672020290975	0
319	238507	48.677020290975	0
319	239568	48.684673672476	0
319	240769	48.689673672476	0
319	241837	48.694673672476	0
319	242134	48.699673672476	0
319	243180	48.704673672476	0
319	243751	48.709673672476	0
319	245168	48.715782283042	0
319	245628	48.720782283042	0
319	246752	48.726803285174	0
319	247454	48.731803285174	0
319	247963	48.736803285174	0
319	248936	48.741803285174	0
319	249756	48.746803285174	0
319	251100	48.755106456653	0
319	251191	48.760106456653	0
319	252355	48.770518310415	0
319	253210	48.775518310415	0
319	253803	48.780518310415	0
319	254214	48.785518310415	0
319	254484	48.790518310415	0
319	254683	48.795518310415	0
319	255452	48.801554680123	0
319	255951	48.806554680123	0
319	256245	48.811554680123	0
319	256729	48.821105531055	0
319	257130	48.826105531055	0
319	257132	48.831105531055	0
319	257533	48.840795560566	0
319	257534	48.845795560566	0
319	258008	48.866080909471	0
319	258317	48.871080909471	0
319	258318	48.876080909471	0
319	259246	49.016606803732	0
319	259247	49.021606803732	0
319	259266	49.505	1
319	259276	49.51	0
319	261100	49.51819231697	39
319	262473	49.52319231697	0
319	263582	49.52819231697	0
319	264704	49.53319231697	0
319	265388	49.53819231697	0
319	267376	49.547126961775	0
319	268039	49.552126961775	0
319	270089	49.565130757309	0
319	271128	49.570130757309	0
319	272089	49.575130757309	0
319	273053	49.580130757309	0
319	274443	49.589595814105	0
319	275226	49.594595814105	0
319	277682	49.608743210051	0
319	278425	49.613743210051	0
319	280238	49.622778042884	0
319	280734	49.627778042884	0
319	281755	49.633768514923	0
319	283035	49.638768514923	0
319	285373	49.649846234116	0
319	285983	49.654846234116	0
319	287069	49.660082801861	0
319	288180	49.665082801861	0
319	290757	49.68188884013	0
319	291502	49.68688884013	0
319	292776	49.696092547732	0
319	293703	49.701092547732	0
319	294333	49.70615090738	0
319	295228	49.71115090738	0
319	296008	49.71615090738	0
319	296874	49.723765175413	0
319	297620	49.728765175413	0
319	299250	49.737408843413	0
319	300262	49.742408843413	0
319	301310	49.748810601442	0
319	302027	49.753810601442	0
319	302712	49.758810601442	0
319	303763	49.763810601442	0
319	304625	49.768810601442	0
319	305382	49.773810601442	0
319	307288	49.785426822131	0
319	308516	49.790426822131	0
319	309221	49.795426822131	0
319	309920	49.800426822131	0
319	310557	49.805426822131	0
319	311575	49.812030977429	0
319	312258	49.817030977429	0
319	313016	49.822030977429	0
319	314273	49.83185528148	0
319	314846	49.83685528148	0
319	316461	49.846056841424	0
319	317216	49.851056841424	0
319	317797	49.856056841424	0
319	318962	49.861056841424	0
319	319636	49.866056841424	0
319	320655	49.871056841424	0
319	321614	49.878594550642	0
319	322197	49.883594550642	0
319	323264	49.888594550642	0
319	323755	49.893594550642	0
319	324657	49.898936536192	0
319	325489	49.903936536192	0
319	326069	49.908936536192	0
319	326383	49.913936536192	0
319	327401	49.922288512851	0
319	327986	49.927288512851	0
319	328369	49.932288512851	0
319	328691	49.937862238984	0
319	328692	49.942862238984	0
319	329104	49.958106853847	0
319	329105	49.963106853847	0
319	330129	49.999578244234	0
319	330589	50.004578244234	0
319	330590	50.009578244234	0
319	330616	50.505	1
319	330626	50.51	0
319	331683	50.518139290557	22
319	332669	50.523139290557	0
319	333279	50.528139290557	0
319	334234	50.533139290557	0
319	335251	50.541447665705	0
319	335868	50.546447665705	0
319	336696	50.551447665705	0
319	337355	50.556447665705	0
319	338108	50.562719671899	0
319	338812	50.567719671899	0
319	339427	50.572719671899	0
319	340195	50.577719671899	0
319	340883	50.582719671899	0
319	341648	50.587719671899	0
319	342046	50.592719671899	0
319	342856	50.597719671899	0
319	343525	50.602719671899	0
319	344303	50.607719671899	0
319	344502	50.612719671899	0
319	344902	50.618163724025	0
319	345665	50.623163724025	0
319	346532	50.628163724025	0
319	347366	50.633163724025	0
319	347471	50.638163724025	0
319	348243	50.647346461985	0
319	348612	50.652346461985	0
319	349337	50.660353049704	0
319	349720	50.665353049704	0
319	350073	50.670353049704	0
319	351021	50.678881073001	0
319	351408	50.683881073001	0
319	351955	50.690697068517	0
319	352315	50.695697068517	0
319	353264	50.707957356136	0
319	353459	50.712957356136	0
319	354225	50.724218018134	0
319	354226	50.729218018134	0
319	354790	50.73917476074	0
319	354996	50.74417476074	0
319	355780	50.765344397448	0
319	355974	50.770344397448	0
319	356537	50.791939843478	0
319	356744	50.796939843478	0
319	357413	50.821469780529	0
319	357907	50.826469780529	0
319	357908	50.831469780529	0
319	358095	51.505	1
319	358188	51.51	0
319	359509	51.51605714275	31
319	360755	51.52105714275	0
319	361757	51.52605714275	0
319	362818	51.53105714275	0
319	363409	51.53605714275	0
319	364227	51.54105714275	0
319	365373	51.54605714275	0
319	366058	51.55105714275	0
319	366743	51.55605714275	0
319	367514	51.56231810557	0
319	368375	51.56731810557	0
319	370470	51.582945829805	0
319	371279	51.587945829805	0
319	372092	51.592945829805	0
319	372941	51.597945829805	0
319	375390	51.613393751788	0
319	375882	51.618393751788	0
319	377872	51.630546159489	0
319	378677	51.635546159489	0
319	379509	51.640546159489	0
319	380232	51.645546159489	0
319	381090	51.650546159489	0
319	382178	51.658472699908	0
319	382785	51.663472699908	0
319	383294	51.668472699908	0
319	384158	51.673472699908	0
319	384804	51.678472699908	0
319	385686	51.684729850364	0
319	386456	51.689729850364	0
319	387305	51.694729850364	0
319	388083	51.699729850364	0
319	388824	51.704729850364	0
319	389687	51.710212410733	0
319	390643	51.715212410733	0
319	391146	51.720212410733	0
319	391839	51.725212410733	0
319	392514	51.730212410733	0
319	393389	51.735212410733	0
319	393973	51.740212410733	0
319	394060	51.745212410733	0
319	394937	51.750656752683	0
319	395714	51.755656752683	0
319	396384	51.760656752683	0
319	396847	51.765656752683	0
319	397127	51.770656752683	0
319	398528	51.782760438998	0
319	399182	51.787760438998	0
319	399837	51.795814914337	0
319	399949	51.800814914337	0
319	401306	51.820353938263	0
319	401702	51.825353938263	0
319	402091	51.830353938263	0
319	402392	51.835353938263	0
319	402506	51.840353938263	0
319	403494	51.84852873538	0
319	403501	51.85352873538	0
319	403920	51.860438223213	0
319	404311	51.865438223213	0
319	404586	51.870438223213	0
319	404698	51.875438223213	0
319	404891	52.505	1
319	404984	52.51	0
319	405720	52.516532415468	13
319	406634	52.521532415468	0
319	407811	52.530300916545	0
319	408286	52.535300916545	0
319	408576	52.540300916545	0
319	408860	52.545300916545	0
319	409649	52.551374702172	0
319	410323	52.556374702172	0
319	410897	52.561374702172	0
319	411385	52.566374702172	0
319	412211	52.571374702172	0
319	412774	52.576374702172	0
319	413160	52.581374702172	0
319	414023	52.589376043418	0
319	414228	52.594376043418	0
319	414779	52.600441850639	0
319	415444	52.605441850639	0
319	416610	52.618598732499	0
319	417152	52.623598732499	0
319	417996	52.629051073682	0
319	418474	52.634051073682	0
319	419804	52.652186419438	0
319	420278	52.657186419438	0
319	421037	52.662186419438	0
319	421342	52.667186419438	0
319	421632	52.672186419438	0
319	422117	52.698216595428	0
319	422118	52.703216595428	0
319	422900	52.723040619827	0
319	422901	52.728040619827	0
319	423467	53.505	1
319	423477	53.51	0
319	424913	53.517276782547	28
319	426079	53.522276782547	0
319	427080	53.530844969883	0
319	427573	53.535844969883	0
319	428407	53.540844969883	0
319	429105	53.545844969883	0
319	429886	53.550844969883	0
319	430648	53.555844969883	0
319	431735	53.564572699703	0
319	432238	53.569572699703	0
319	433016	53.574572699703	0
319	433944	53.579572699703	0
319	434822	53.586967629891	0
319	435309	53.591967629891	0
319	436430	53.601725672395	0
319	437020	53.606725672395	0
319	438024	53.613109243369	0
319	438533	53.618109243369	0
319	441122	53.643205273434	0
319	442030	53.648205273434	0
319	442813	53.653205273434	0
319	443667	53.658205273434	0
319	444530	53.663205273434	0
319	445888	53.677743808248	0
319	446669	53.682743808248	0
319	448056	53.694410798903	0
319	448751	53.699410798903	0
319	449730	53.704410798903	0
319	450149	53.709410798903	0
319	451256	53.714410798903	0
319	451946	53.719410798903	0
319	452847	53.724410798903	0
319	453449	53.729410798903	0
319	454484	53.735221623755	0
319	455081	53.740221623755	0
319	455989	53.745221623755	0
319	456894	53.750221623755	0
319	457781	53.755221623755	0
319	459981	53.778325462553	0
319	460437	53.783325462553	0
319	461438	53.789075690684	0
319	461824	53.794075690684	0
319	462517	53.799951842646	0
319	463118	53.804951842646	0
319	463797	53.809951842646	0
319	464495	53.814951842646	0
319	464893	53.819951842646	0
319	464895	53.824951842646	0
319	465387	53.834741638437	0
319	465717	53.839741638437	0
319	466094	53.847149491471	0
319	466095	53.852149491471	0
319	466489	53.869956082997	0
319	466490	53.874956082997	0
319	467696	53.888946819266	0
319	467697	53.893946819266	0
319	468102	53.951669492392	0
319	468103	53.956669492392	0
319	468296	54.505	1
319	468303	54.51	0
319	469303	54.518859967826	18
319	470126	54.523859967826	0
319	471032	54.530408768879	0
319	471607	54.535408768879	0
319	472088	54.540408768879	0
319	472695	54.54654049017	0
319	473294	54.55154049017	0
319	473681	54.55654049017	0
319	473874	54.56154049017	0
319	474481	54.568009968584	0
319	475065	54.573009968584	0
319	475879	54.581169987988	0
319	476399	54.586169987988	0
319	476819	54.591169987988	0
319	477424	54.596169987988	0
319	478289	54.601169987988	0
319	478991	54.606169987988	0
319	481087	54.619631657118	0
319	481457	54.624631657118	0
319	482881	54.635486828128	0
319	483391	54.640486828128	0
319	483853	54.645486828128	0
319	484588	54.650855681879	0
319	485449	54.655855681879	0
319	485824	54.660855681879	0
319	486400	54.667030850737	0
319	486997	54.672030850737	0
319	487595	54.677030850737	0
319	487931	54.682030850737	0
319	488411	54.687030850737	0
319	489588	54.699354003727	0
319	490282	54.704354003727	0
319	490966	54.709354003727	0
319	491639	54.714354003727	0
319	492005	54.719354003727	0
319	492565	54.730775473345	0
319	492766	54.735775473345	0
319	493235	54.742513464622	0
319	493697	54.747513464622	0
319	493703	54.752513464622	0
319	494885	54.769695513777	0
319	495279	54.774695513777	0
319	495663	54.779695513777	0
319	495664	54.784695513777	0
319	498659	70.00501	0
319	499164	70.01001	0
319	499254	70.01501	0
319	499592	70.020366037765	0
319	499996	70.025366037765	0
319	500492	70.030366037765	0
319	500888	70.035366037765	0
319	501594	70.040366037765	0
319	501975	70.045366037765	0
319	502368	70.050366037765	0
319	502369	70.055366037765	0
319	502947	71.00501	0
319	503464	71.01001	0
319	503864	71.01501	0
319	504601	71.02001	0
319	505009	71.02501	0
319	505430	71.03001	0
319	505517	71.03501	0
319	505940	71.040284132218	0
319	506266	71.045284132218	0
319	506267	71.050284132218	0
319	506835	72.00501	0
319	507227	72.01001	0
319	507627	72.01501	0
319	507628	72.02001	0
319	507997	73.00501	0
319	508414	73.01001	0
319	508896	73.01501	0
319	509374	73.02001	0
319	509943	73.047124044431	0
319	509944	73.052124044431	0
319	510714	73.076740043098	0
319	510715	73.081740043098	0
319	605378	670.00501	0
319	605774	670.01001	0
319	606192	670.01501	0
319	606482	670.02001	0
319	607088	670.02501	0
319	607770	670.03001	0
319	608253	670.03501	0
319	608953	670.04001	0
319	608954	670.04501	0
319	609532	671.00501	0
319	609963	671.01001	0
319	610359	671.01501	0
319	610859	671.02001	0
319	611366	671.02501	0
319	611787	671.03001	0
319	611788	671.03501	0
319	612286	671.051244097918	0
319	612920	671.056244097918	0
319	613035	671.061244097918	0
319	613408	672.00501	0
319	613690	672.01001	0
319	614281	672.015276013195	0
319	614396	672.020276013195	0
319	614966	673.00501	0
319	615463	673.01001	0
319	616164	673.01501	0
319	616544	673.02001	0
319	616548	673.02501	0
319	711208	1270.00501	0
319	711610	1270.01001	0
319	712031	1270.01501	0
319	712601	1270.02001	0
319	713090	1270.02501	0
319	713385	1270.03001	0
319	713386	1270.03501	0
319	714187	1270.049964080824	0
319	714581	1270.054964080824	0
319	714582	1270.059964080824	0
319	714978	1270.068020094632	0
319	714979	1270.073020094632	0
319	715433	1271.00501	0
319	715877	1271.01001	0
319	716075	1271.01501	0
319	716799	1271.020036044271	0
319	717493	1271.025036044271	0
319	717704	1271.030036044271	0
319	718125	1271.035524111527	0
319	718548	1271.040524111527	0
319	718874	1271.045524111527	0
319	718875	1271.050524111527	0
319	719248	1272.00501	0
319	719835	1272.01001	0
319	720235	1272.01501	0
319	720236	1272.02001	0
319	720806	1273.00501	0
319	721220	1273.01001	0
319	721617	1273.01501	0
319	722087	1273.02001	0
319	722388	1273.02501	0
319	722389	1273.03001	0
319	817126	1870.00501	0
319	817411	1870.01001	0
319	817946	1870.01501	0
319	817950	1870.02001	0
319	818756	1870.027036053132	0
319	819529	1870.032036053132	0
319	820090	1870.037036053132	0
319	820091	1870.042036053132	0
319	821247	1870.06332410516	0
319	821251	1870.06832410516	0
319	821705	1871.00501	0
319	822260	1871.01001	0
319	822656	1871.01501	0
319	823077	1871.02001	0
319	823948	1871.02501	0
319	824067	1871.03001	0
319	824901	1871.051564097918	0
319	825313	1871.056564097918	0
319	825314	1871.061564097918	0
319	825885	1872.00501	0
319	826360	1872.01001	0
319	826674	1872.01501	0
319	826675	1872.02001	0
319	827242	1873.00501	0
319	827659	1873.01001	0
319	828143	1873.01501	0
319	828826	1873.02001	0
319	828827	1873.02501	0
319	923294	2470.00501	0
319	923886	2470.01001	0
319	924310	2470.01501	0
319	924797	2470.02001	0
319	925205	2470.02501	0
319	925915	2470.03001	0
319	926302	2470.03501	0
319	926701	2470.04001	0
319	927082	2470.04501	0
319	927083	2470.05001	0
319	927453	2471.00501	0
319	927897	2471.01001	0
319	928179	2471.01501	0
319	928579	2471.020676044271	0