version 2
run AODVScenario_1e-0-20121003-12:40:34-1944
attr configname AODVScenario_1e
attr datetime 20121003-12:40:34
attr experiment AODVScenario_1e
attr inifile omnetpp.ini
attr iterationvars ""
attr iterationvars2 $repetition=0
attr measurement ""
attr network csma802154net
attr processid 1944
attr repetition 0
attr replication #0
attr resultdir results
attr runnumber 0
attr seedset 0

vector 386  csma802154net.dataCentricNetworkMan  RREQPacketFrequency  ETV
vector 387  csma802154net.dataCentricNetworkMan  DiscoveryPacketFrequency  ETV
vector 388  csma802154net.dataCentricNetworkMan  RegisterPacketFrequency  ETV
vector 389  csma802154net.dataCentricNetworkMan  RReplyPacketFrequency  ETV
vector 390  csma802154net.dataCentricNetworkMan  AODVDataPacketFrequency  ETV
386	11001	40.005	1
386	11142	40.01	0
386	12835	40.038576446436	116
386	13254	40.043576446436	0
386	14594	40.065499797493	4
386	14650	40.070499797493	0
386	15756	40.089742602677	35
386	15820	40.094742602677	0
386	17919	40.113446493122	107
386	18243	40.118446493122	0
386	19957	40.139387517246	16
386	20079	40.144387517246	0
386	22470	40.185852948656	1
386	22658	40.190852948656	0
386	23992	40.211890983136	10
386	24270	40.216890983136	0
386	26883	40.264339657966	0
386	26931	40.269339657966	0
386	27901	40.288701097003	34
386	28002	40.293701097003	0
386	28596	40.304450206164	0
386	29266	40.309450206164	0
386	30815	40.346978827882	16
386	30871	40.351978827882	0
386	31645	40.358260826467	53
386	31752	40.363260826467	0
386	33149	40.382625946057	36
386	33268	40.387625946057	0
386	34622	40.407918553269	25
386	34707	40.412918553269	0
386	36175	40.430017689479	0
386	36455	40.435017689479	0
386	37969	40.454959666801	11
386	38055	40.459959666801	0
386	39416	40.478444027556	2
386	40129	40.483444027556	0
386	40191	40.488444027556	0
386	41591	40.507428793319	0
386	41979	40.512428793319	0
386	43841	40.542356324045	4
386	43883	40.547356324045	0
386	45525	40.567140280329	36
386	45596	40.572140280329	0
386	47304	40.591666477056	20
386	47382	40.596666477056	0
386	48615	40.61754085269	3
386	48771	40.62254085269	0
386	49567	40.641838219005	27
386	50018	40.646838219005	25
386	50207	40.651838219005	0
386	51531	40.676967562046	0
386	51717	40.681967562046	0
386	52403	40.701820652082	17
386	52448	40.706820652082	0
386	53285	40.713985938843	19
386	53322	40.718985938843	0
386	54175	40.738684930602	1
386	54212	40.743684930602	0
386	55219	40.762321960807	0
386	55394	40.767321960807	0
386	55819	40.786771642618	8
386	56316	40.791771642618	61
386	56768	40.796771642618	0
386	56797	40.801771642618	0
386	57808	40.821163033674	1
386	57840	40.826163033674	0
386	58792	40.844821613182	87
386	59062	40.849821613182	0
386	59934	40.873469585608	9
386	59948	40.878469585608	0
386	60852	40.898579099491	84
386	61008	40.903579099491	0
386	61338	40.922878229327	0
386	61790	40.927878229327	0
386	64039	40.980756758943	0
386	64063	40.985756758943	0
386	67058	41.051933703351	49
386	67063	41.056933703351	0
386	68130	41.079937739479	28
386	68138	41.084937739479	0
386	69698	41.129315104262	0
386	69710	41.134315104262	0
386	70712	41.147847542683	0
386	70995	41.152847542683	0
386	71679	41.175802968885	0
386	72200	41.180802968885	0
386	74200	41.232702261912	34
386	74341	41.237702261912	0
386	75418	41.261346554717	11
386	75561	41.266346554717	0
386	75940	41.286025215889	0
386	76402	41.291025215889	36
386	76407	41.296025215889	0
386	77454	41.316516793909	0
386	77741	41.321516793909	0
386	78749	41.34445424999	0
386	78765	41.34945424999	0
386	79405	41.371255929425	37
386	79425	41.376255929425	0
386	80083	41.397782903648	0
386	80363	41.402782903648	0
386	83131	41.498847588611	1
386	83413	41.503847588611	0
386	84317	41.528884702948	20
386	84912	41.533884702948	14
386	84960	41.538884702948	0
386	86731	41.583272190117	51
386	87134	41.588272190117	0
386	88678	41.618738174003	29
386	88748	41.623738174003	0
386	89503	41.645424684448	33
386	89538	41.650424684448	0
386	90480	41.669947229889	92
386	90510	41.674947229889	0
386	91720	41.696230365689	1
386	91728	41.701230365689	0
386	92468	41.718026990323	13
386	92631	41.723026990323	0
386	93308	41.744676082557	19
386	93772	41.749676082557	0
386	94597	41.771836761945	14
386	94894	41.776836761945	0
386	95695	41.800450213751	46
386	95723	41.805450213751	0
386	96573	41.826791605675	44
386	96594	41.831791605675	0
386	97520	41.854490513988	21
386	97530	41.859490513988	0
386	98253	41.879481728666	42
386	98258	41.884481728666	0
386	98981	41.902470920055	0
386	99262	41.907470920055	0
386	99489	41.924192819128	12
386	99986	41.929192819128	0
386	100704	41.955719566789	0
386	100712	41.960719566789	0
386	101270	41.98092920854	54
386	101271	41.98592920854	0
386	102147	42.004551603058	0
386	102151	42.009551603058	0
386	102788	42.045693345846	33
386	102967	42.050693345846	0
386	104399	42.112039627203	0
386	104406	42.117039627203	0
386	105183	42.145711631952	0
386	105454	42.150711631952	0
386	106721	42.224647656097	0
386	106725	42.229647656097	0
386	109191	42.340415656271	0
386	109199	42.345415656271	0
386	109762	42.367290303161	0
386	109766	42.372290303161	0
386	110561	42.420103670625	0
386	110569	42.425103670625	0
386	111144	42.443532778747	0
386	111151	42.448532778747	0
386	111849	42.477162323826	0
386	111987	42.482162323826	0
386	112546	42.508820795156	0
386	112550	42.513820795156	0
386	112947	43.005	0
386	112948	43.01	0
386	113915	44.005	0
386	113916	44.01	0
386	114859	45.005	0
386	114860	45.01	0
386	115971	46.005	0
386	115972	46.01	0
386	116907	47.005	0
386	116908	47.01	0
386	118019	48.005	0
386	118020	48.01	0
386	118829	49.005	1
386	118961	49.01	0
386	120115	49.035114514645	162
386	120775	49.040114514645	0
386	122817	49.060917485057	100
386	123138	49.065917485057	0
386	123356	49.070917485057	0
386	125043	49.087598947768	64
386	125157	49.092598947768	0
386	126762	49.112308109287	53
386	126839	49.117308109287	0
386	128271	49.139002141745	38
386	128350	49.144002141745	0
386	129454	49.163972525613	35
386	129503	49.168972525613	0
386	130655	49.188799810461	84
386	130711	49.193799810461	0
386	131707	49.213929506971	14
386	131940	49.218929506971	9
386	132128	49.223929506971	0
386	132993	49.238904569104	27
386	133061	49.243904569104	0
386	133362	49.252324268796	14
386	133528	49.257324268796	0
386	134163	49.264166361731	23
386	134201	49.269166361731	0
386	134765	49.281639342753	19
386	135392	49.286639342753	54
386	135430	49.291639342753	0
386	136267	49.306288684011	18
386	136670	49.311288684011	38
386	136836	49.316288684011	0
386	137593	49.331867343574	12
386	137922	49.336867343574	26
386	137943	49.341867343574	0
386	138669	49.359106180688	53
386	138689	49.364106180688	0
386	139672	49.383370397684	66
386	139686	49.388370397684	0
386	140623	49.408641670882	92
386	140636	49.413641670882	0
386	141260	49.436346099512	93
386	141397	49.441346099512	0
386	142130	49.464957461754	117
386	142134	49.469957461754	0
386	142824	49.499886198109	49
386	143064	49.504886198109	21
386	143199	49.509886198109	0
386	143746	49.535477187181	83
386	143747	49.540477187181	0
386	144013	50.005	1
386	144145	50.01	0
386	145663	50.03460848988	188
386	146350	50.03960848988	0
386	148755	50.060434616412	23
386	148916	50.065434616412	0
386	150761	50.085470680195	32
386	150900	50.090470680195	0
386	152361	50.110305493637	41
386	152463	50.115305493637	0
386	154011	50.137202578677	32
386	154122	50.142202578677	0
386	155613	50.162076494384	24
386	155675	50.167076494384	0
386	156923	50.187486991306	44
386	156956	50.192486991306	0
386	158104	50.213371984569	42
386	158275	50.218371984569	0
386	158554	50.230914415257	6
386	159245	50.235914415257	37
386	159466	50.240914415257	10
386	159639	50.245914415257	0
386	160196	50.262493407223	30
386	160766	50.267493407223	53
386	161063	50.272493407223	0
386	162076	50.294932321733	47
386	162249	50.299932321733	0
386	163742	50.323331231116	96
386	163770	50.328331231116	0
386	164726	50.346394472592	19
386	165342	50.351394472592	0
386	166148	50.375542112935	34
386	166468	50.380542112935	0
386	167518	50.404402955568	85
386	167527	50.409402955568	0
386	168038	50.43243641625	3
386	168438	50.43743641625	26
386	168443	50.44243641625	0
386	169054	50.464819224034	60
386	169056	50.469819224034	0
386	169547	50.483753682042	18
386	169552	50.488753682042	0
386	170083	50.510364904156	35
386	170084	50.515364904156	0
386	170797	50.564273090253	82
386	170800	50.569273090253	0
386	171503	50.612271472384	83
386	171507	50.617271472384	0
386	172213	50.645844033391	0
386	172351	50.650844033391	0
386	172920	50.668812056494	0
386	172924	50.673812056494	0
386	174012	51.005	1
386	174022	51.01	0
386	175635	51.040367367451	164
386	176185	51.045367367451	0
386	178289	51.066440843124	48
386	178509	51.071440843124	0
386	180436	51.091320173221	22
386	180576	51.096320173221	0
386	182001	51.116834587186	0
386	182375	51.121834587186	0
386	183499	51.143479956637	69
386	183607	51.148479956637	0
386	183820	51.155091122	0
386	183880	51.160091122	0
386	185236	51.169330366449	60
386	185303	51.174330366449	0
386	186738	51.197198042976	14
386	186784	51.202198042976	0
386	187896	51.222993614497	73
386	188136	51.227993614497	0
386	189215	51.247720251109	57
386	189412	51.252720251109	0
386	190468	51.273767278372	79
386	190651	51.278767278372	0
386	191564	51.301937991757	19
386	191774	51.306937991757	7
386	192218	51.311937991757	0
386	192647	51.326831825618	24
386	192995	51.331831825618	35
386	193676	51.336831825618	1
386	193690	51.341831825618	0
386	194770	51.361604404211	53
386	194831	51.366604404211	0
386	195948	51.386784077862	88
386	195965	51.391784077862	0
386	196958	51.411863982979	24
386	196968	51.416863982979	0
386	197473	51.436129292877	30
386	197490	51.441129292877	0
386	197919	51.450972699851	28
386	198179	51.455972699851	0
386	198738	51.479883646212	9
386	198739	51.484883646212	0
386	199033	51.501851706375	0
386	199038	51.506851706375	0
386	199538	51.51743349983	36
386	199678	51.52243349983	0
386	200252	51.545535961523	0
386	200390	51.550535961523	0
386	201016	51.57352568826	0
386	201023	51.57852568826	0
386	202427	51.653063974837	0
386	202431	51.658063974837	0
386	202552	51.80501	1
386	202562	51.81001	0
386	203976	51.839921071107	159
386	204542	51.844921071107	0
386	206366	51.866743403805	8
386	206453	51.871743403805	0
386	207935	51.89013530206	47
386	208056	51.89513530206	0
386	208199	51.90013530206	0
386	209331	51.914574444265	58
386	209589	51.919574444265	0
386	210630	51.939747916623	12
386	211115	51.944747916623	29
386	211187	51.949747916623	0
386	212220	51.965764890905	22
386	212584	51.970764890905	0
386	213611	51.990620988095	52
386	213889	51.995620988095	17
386	214195	52.000620988095	1
386	214372	52.005620988095	0
386	215567	52.016687657427	25
386	215616	52.021687657427	0
386	215890	52.031569527866	10
386	215924	52.036569527866	0
386	217037	52.043139619975	13
386	217095	52.048139619975	0
386	218451	52.067826094419	59
386	218541	52.072826094419	0
386	219970	52.093255828897	53
386	220018	52.098255828897	0
386	221261	52.1188846104	8
386	221447	52.1238846104	0
386	222400	52.143603164798	42
386	222617	52.148603164798	13
386	222772	52.153603164798	0
386	223349	52.169138758737	31
386	223492	52.174138758737	0
386	223756	52.180073276039	18
386	223972	52.185073276039	15
386	224134	52.190073276039	0
386	224588	52.198235838258	24
386	224611	52.203235838258	0
386	225280	52.216217022257	43
386	225548	52.221217022257	16
386	225566	52.226217022257	0
386	226270	52.240520751543	55
386	226410	52.245520751543	0
386	227162	52.268656086816	53
386	227163	52.273656086816	0
386	228368	52.304143632785	38
386	228372	52.309143632785	0
386	229442	52.32796926537	65
386	229446	52.33296926537	0
386	230496	52.378570239273	70
386	230632	52.383570239273	0
386	231075	52.394299218903	0
386	231224	52.399299218903	0
386	232022	52.409196311032	100
386	232488	52.414196311032	0
386	232949	52.424081295227	0
386	233031	52.429081295227	0
386	234211	52.436238642353	66
386	234522	52.441238642353	0
386	234659	52.446238642353	0
386	235209	52.46086426373	14
386	236134	52.46586426373	65
386	236491	52.47086426373	0
386	237256	52.486101006051	25
386	238167	52.491101006051	11
386	238334	52.496101006051	0
386	239727	52.516985303785	6
386	239786	52.521985303785	0
386	241010	52.543267187614	51
386	241127	52.548267187614	0
386	242279	52.567832100296	85
386	242763	52.572832100296	0
386	243350	52.59220347929	24
386	244027	52.59720347929	8
386	244110	52.60220347929	0
386	245425	52.632215332679	7
386	245465	52.637215332679	0
386	246060	52.647695310172	43
386	246455	52.652695310172	16
386	246630	52.657695310172	0
386	247463	52.675958026928	32
386	248037	52.680958026928	0
386	248803	52.700934552431	41
386	249164	52.705934552431	12
386	249210	52.710934552431	0
386	250158	52.726258586659	18
386	250367	52.731258586659	0
386	250696	52.741208345691	6
386	250739	52.746208345691	0
386	251143	52.753264464893	16
386	251495	52.758264464893	0
386	252000	52.776175064572	30
386	252395	52.781175064572	45
386	252577	52.786175064572	0
386	252998	52.800958743447	33
386	253486	52.805958743447	0
386	254373	52.834145112413	64
386	254395	52.839145112413	0
386	255111	52.859210179097	78
386	255273	52.864210179097	0
386	255525	52.869922576169	20
386	255554	52.874922576169	0
386	256277	52.887369297435	0
386	256423	52.892369297435	0
386	257324	52.917457311442	0
386	257475	52.922457311442	0
386	258022	52.941703222698	50
386	258358	52.946703222698	0
386	259819	53.005	1
386	260022	53.01	0
386	260633	53.015006679661	0
386	260641	53.020006679661	0
386	261952	53.062518701117	0
386	262090	53.067518701117	0
386	262883	53.093566729327	0
386	262892	53.098566729327	0
386	263578	53.111654696533	0
386	263720	53.116654696533	0
386	264381	53.140782705832	0
386	264385	53.145782705832	0
386	265800	53.174363706438	0
386	265942	53.179363706438	0
386	269459	53.283017343254	0
386	269600	53.288017343254	0
386	270316	53.306305360126	0
386	270454	53.311305360126	0
386	271004	53.330233376174	0
386	271279	53.335233376174	0
386	271984	53.360001396485	0
386	272122	53.365001396485	0
386	272796	53.384569437107	0
386	272934	53.389569437107	0
386	274585	53.457929333954	0
386	274723	53.462929333954	0
386	276002	53.519843745075	0
386	276140	53.524843745075	0
386	276712	53.550251754374	0
386	276716	53.555251754374	0
386	276718	53.80501	1
386	276725	53.81001	0
386	278671	53.84152902326	159
386	279154	53.84652902326	0
386	282993	53.893090307117	43
386	283067	53.898090307117	0
386	284082	53.918967529851	2
386	284115	53.923967529851	0
386	285383	53.943537100549	103
386	285529	53.948537100549	0
386	286006	53.958679755628	6
386	286286	53.963679755628	0
386	286818	53.968685718471	44
386	287142	53.973685718471	0
386	288076	53.993380094132	52
386	288595	53.998380094132	5
386	289051	54.003380094132	1
386	289111	54.008380094132	0
386	290032	54.018184994719	48
386	290434	54.023184994719	0
386	290846	54.028184994719	17
386	290880	54.033184994719	0
386	291463	54.043320805012	14
386	291762	54.048320805012	0
386	292014	54.054498689027	15
386	292053	54.059498689027	0
386	293092	54.0725071608	17
386	293160	54.0775071608	0
386	294335	54.09730229968	57
386	294402	54.10230229968	0
386	295372	54.12176492922	49
386	295546	54.12676492922	0
386	295910	54.132106274568	10
386	295960	54.137106274568	0
386	296722	54.149044801072	48
386	297132	54.154044801072	24
386	297199	54.159044801072	0
386	298758	54.177314447519	138
386	299145	54.182314447519	0
386	300575	54.201956056976	30
386	300668	54.206956056976	0
386	302044	54.226826767611	90
386	302273	54.231826767611	0
386	303615	54.251223157057	47
386	303810	54.256223157057	0
386	304654	54.275611072736	26
386	305237	54.280611072736	21
386	305329	54.285611072736	0
386	306545	54.301187268507	62
386	306748	54.306187268507	0
386	307583	54.326482063452	28
386	308174	54.331482063452	29
386	308257	54.336482063452	0
386	309278	54.351759157057	50
386	309847	54.356759157057	19
386	309902	54.361759157057	0
386	310890	54.376145903118	10
386	311179	54.381145903118	18
386	311229	54.386145903118	0
386	312503	54.401330419951	57
386	312578	54.406330419951	0
386	312967	54.420752795887	18
386	313793	54.425752795887	15
386	313996	54.430752795887	0
386	315260	54.451457847268	69
386	315576	54.456457847268	0
386	316537	54.477906017319	61
386	317139	54.482906017319	9
386	317168	54.487906017319	0
386	317689	54.503099865383	26
386	318163	54.508099865383	30
386	318337	54.513099865383	0
386	318870	54.528140138796	24
386	318916	54.533140138796	0
386	319420	54.539454179483	37
386	319747	54.544454179483	7
386	319777	54.549454179483	0
386	320510	54.565087659479	40
386	320535	54.570087659479	0
386	321233	54.591327403269	30
386	321393	54.596327403269	0
386	321858	54.605226482077	27
386	322014	54.610226482077	0
386	323025	54.634121652571	59
386	323381	54.639121652571	0
386	323583	54.644121652571	0
386	324743	54.674329601688	32
386	324760	54.679329601688	0
386	327185	54.748041220754	53
386	327202	54.753041220754	0
386	327925	54.775930086968	13
386	328066	54.780930086968	0
386	328882	54.800933226801	0
386	329266	54.805933226801	0
386	330274	54.832977051821	0
386	330412	54.837977051821	0
386	331113	54.860056093145	0
386	331262	54.865056093145	0
386	331856	54.870273053423	0
386	331860	54.875273053423	0
386	332682	54.894801065477	0
386	332693	54.899801065477	0
386	333701	54.922249081794	0
386	333715	54.927249081794	0
386	334908	54.955501130059	0
386	335050	54.960501130059	0
386	336620	55.019969062568	0
386	336891	55.024969062568	0
386	337264	55.042977097841	0
386	337822	55.047977097841	0
386	340184	55.13448908724	0
386	340322	55.13948908724	0
386	342993	55.228929095156	0
386	343135	55.233929095156	0
386	345813	55.34189501145	1
386	345834	55.34689501145	0
386	346660	55.367313021201	0
386	346943	55.372313021201	0
386	347994	55.401416125022	0
386	348133	55.406416125022	0
386	350606	55.496985094044	0
386	350611	55.501985094044	0
386	351545	55.546526093145	1
386	351546	55.551526093145	0
386	352019	55.571624107152	0
386	352028	55.576624107152	0
386	353698	55.615401129857	30
386	353812	55.620401129857	0
386	355112	55.642347514173	66
386	355310	55.647347514173	0
386	356344	55.666770367649	10
386	356404	55.671770367649	0
386	357316	55.692147336938	36
386	357342	55.697147336938	0
386	358203	55.717661032091	63
386	358222	55.722661032091	0
386	359420	55.741998377367	117
386	359437	55.746998377367	0
386	360347	55.768133498977	14
386	360368	55.773133498977	0
386	361254	55.792894378019	23
386	361271	55.797894378019	0
386	361314	55.80501	1
386	361333	55.81001	0
386	362157	55.81678977781	6
386	362180	55.82178977781	0
386	362998	55.842698239328	27
386	363013	55.847698239328	0
386	363939	55.864436567666	59
386	363953	55.869436567666	0
386	364870	55.892115204866	53
386	364880	55.897115204866	0
386	365617	55.91794450493	15
386	365630	55.92294450493	0
386	366848	55.942847629779	120
386	367099	55.947847629779	0
386	368449	55.965798580814	27
386	368490	55.970798580814	0
386	369520	55.990151490338	6
386	369796	55.995151490338	0
386	371024	56.031748450377	45
386	371603	56.036748450377	37
386	371763	56.041748450377	0
386	372755	56.064854872024	55
386	373225	56.069854872024	11
386	373328	56.074854872024	0
386	374127	56.089598674176	2
386	374818	56.094598674176	13
386	374875	56.099598674176	0
386	376126	56.121121197483	18
386	376142	56.126121197483	0
386	376586	56.137695658918	14
386	377085	56.142695658918	8
386	377356	56.147695658918	0
386	377451	56.160943094039	1
386	377665	56.165943094039	0
386	378481	56.17183073059	50
386	378541	56.17683073059	0
386	378600	56.18183073059	0
386	379942	56.19867543163	73
386	380222	56.20367543163	0
386	380875	56.216191699465	13
386	381248	56.221191699465	29
386	381521	56.226191699465	10
386	381718	56.231191699465	0
386	382332	56.241433113245	19
386	382389	56.246433113245	0
386	382978	56.254821779677	39
386	383020	56.259821779677	0
386	383776	56.266167916623	57
386	383897	56.271167916623	0
386	384258	56.279386772319	18
386	384290	56.284386772319	0
386	385063	56.291785038258	37
386	385134	56.296785038258	0
386	386252	56.316518850652	79
386	386349	56.321518850652	0
386	387671	56.339516332177	41
386	387768	56.344516332177	0
386	388729	56.3652749471	45
386	388771	56.3702749471	0
386	389898	56.389628643584	44
386	389942	56.394628643584	0
386	391115	56.414788140265	39
386	391149	56.419788140265	0
386	392290	56.439180727837	65
386	392326	56.444180727837	0
386	393127	56.464581275719	6
386	393162	56.469581275719	0
386	394295	56.490268626346	29
386	394452	56.495268626346	0
386	394818	56.514606929606	3
386	395231	56.519606929606	0
386	395583	56.524606929606	0
386	396126	56.542959292295	13
386	396338	56.547959292295	0
386	396354	56.552959292295	0
386	397050	56.567253900902	3
386	397195	56.572253900902	0
386	398343	56.597052636955	70
386	398511	56.602052636955	0
386	400117	56.646722896632	12
386	400145	56.651722896632	0
386	401068	56.670612365221	0
386	401218	56.675612365221	0
386	402104	56.696566824945	0
386	402427	56.701566824945	0
386	403342	56.734765353198	24
386	403358	56.739765353198	0
386	403556	56.752781933243	0
386	403881	56.757781933243	0
386	404971	56.782502834143	0
386	405268	56.787502834143	0
386	406478	56.820020378341	0
386	406750	56.825020378341	0
386	407679	56.847853946336	100
386	408176	56.852853946336	0
386	409937	56.878716406965	18
386	409989	56.883716406965	0
386	411118	56.903342598584	56
386	411250	56.908342598584	0
386	413670	56.952938913388	26
386	413690	56.957938913388	0
386	414972	56.977879060037	68
386	414994	56.982879060037	0
386	415394	56.998137033295	10
386	416324	57.003137033295	30
386	416624	57.008137033295	0
386	417151	57.024825033295	6
386	417874	57.029825033295	37
386	417919	57.034825033295	0
386	418715	57.049593040696	11
386	419320	57.054593040696	51
386	419367	57.059593040696	0
386	420456	57.082636391191	83
386	420506	57.087636391191	0
386	421914	57.108300905633	68
386	421943	57.113300905633	0
386	422845	57.132500968159	11
386	422892	57.137500968159	0
386	424213	57.157606837003	52
386	424222	57.162606837003	0
386	425223	57.181247220924	14
386	425376	57.186247220924	0
386	426446	57.208852979615	103
386	426657	57.213852979615	0
386	427670	57.233157539711	31
386	427930	57.238157539711	13
386	427953	57.243157539711	0
386	428698	57.259883738476	12
386	428704	57.264883738476	0
386	429417	57.285332549073	36
386	429426	57.290332549073	0
386	430211	57.310783325953	70
386	430220	57.315783325953	0
386	430982	57.338643810206	57
386	430994	57.343643810206	0
386	431756	57.367003269756	88
386	431781	57.372003269756	0
386	432527	57.393328818429	87
386	432536	57.398328818429	0
386	433419	57.417960935264	113
386	433440	57.422960935264	0
386	434677	57.469904939386	40
386	434690	57.474904939386	0
386	435353	57.494806868417	71
386	435371	57.499806868417	0
386	435893	57.520617021726	41
386	436168	57.525617021726	30
386	436339	57.530617021726	0
386	437218	57.560825475168	31
386	437360	57.565825475168	0
386	437725	57.581084997118	36
386	437867	57.586084997118	0
386	438214	57.591179312296	40
386	438347	57.596179312296	0
386	438742	57.610101605664	43
386	438904	57.615101605664	0
386	439742	57.645595282073	0
386	439754	57.650595282073	0
386	440181	57.658182807143	32
386	440187	57.663182807143	0
386	440721	57.683043293885	0
386	440862	57.688043293885	0
386	442101	57.740492408348	0
386	442240	57.745492408348	0
386	442934	57.769065063043	0
386	442938	57.774065063043	0
386	443865	57.812791022009	63
386	444154	57.817791022009	0
386	444927	57.843489069918	0
386	444937	57.848489069918	0
386	446351	57.909913082592	0
386	446639	57.914913082592	0
386	447218	57.940734894979	0
386	447356	57.945734894979	0
386	448716	58.003433089359	58
386	448767	58.008433089359	0
386	449443	58.038699296234	0
386	449447	58.043699296234	0
386	450248	58.073756419503	0
386	450252	58.078756419503	0
386	450957	58.113574902388	0
386	451095	58.118574902388	0
386	451596	58.14189501145	1
386	451776	58.14689501145	0
386	452318	58.152268432651	0
386	452322	58.157268432651	0
386	453967	58.24435891655	105
386	454340	58.24935891655	0
386	455640	58.268835542974	0
386	455965	58.273835542974	0
386	456941	58.299354956716	12
386	457038	58.304354956716	0
386	458041	58.325388766964	55
386	458124	58.330388766964	0
386	459365	58.349650668784	104
386	459532	58.354650668784	0
386	461029	58.375250218701	82
386	461120	58.380250218701	0
386	462352	58.40007043344	59
386	462395	58.40507043344	0
386	463661	58.424805722762	82
386	463686	58.429805722762	0
386	464752	58.449149653053	64
386	464902	58.454149653053	0
386	466095	58.477605991042	87
386	466148	58.482605991042	0
386	467289	58.502424907765	85
386	467315	58.507424907765	0
386	468537	58.527491047647	56
386	468836	58.532491047647	0
386	469244	58.5539735502	26
386	470190	58.5589735502	45
386	470232	58.5639735502	0
386	471294	58.583585505682	51
386	471333	58.588585505682	0
386	472270	58.608563066868	41
386	472815	58.613563066868	0
386	473876	58.639500952454	27
386	473900	58.644500952454	0
386	474910	58.663827577523	82
386	474923	58.668827577523	0
386	475746	58.689373522748	37
386	475939	58.694373522748	0
386	476787	58.716941864306	47
386	477230	58.721941864306	0
386	477766	58.744902161611	50
386	477901	58.749902161611	0
386	478758	58.778253034408	81
386	478763	58.783253034408	0
386	478929	58.794759010803	6
386	479259	58.799759010803	0
386	480087	58.834603214057	0
386	480091	58.839603214057	0
386	480524	59.40501	1
386	480659	59.41001	0
386	482675	59.43590580511	121
386	483187	59.44090580511	0
386	483433	59.44590580511	0
386	485082	59.460126245061	0
386	485344	59.465126245061	0
386	486736	59.484701196205	5
386	486793	59.489701196205	0
386	491993	59.580224214499	0
386	492060	59.585224214499	0
386	493109	59.607153787587	27
386	493215	59.612153787587	0
386	494506	59.630415967546	0
386	494900	59.635415967546	0
386	496018	59.654902273685	7
386	496415	59.659902273685	0
386	497409	59.67986933206	29
386	497507	59.68486933206	0
386	498818	59.720600684337	11
386	499926	59.725600684337	57
386	500213	59.730600684337	0
386	500313	59.735600684337	0
386	501545	59.752347164359	33
386	501618	59.757347164359	0
386	502781	59.775043178049	0
386	503000	59.780043178049	0
386	503452	59.790754838419	13
386	503512	59.795754838419	0
386	504052	59.801972767483	12
386	504287	59.806972767483	0
386	510475	59.934571032667	0
386	511036	59.939571032667	0
386	512144	59.964287544402	0
386	512177	59.969287544402	0
386	514892	60.0116848158	0
386	515046	60.0166848158	0
386	516688	60.05954369897	0
386	517111	60.06454369897	0
386	518219	60.087571189102	0
386	518392	60.092571189102	0
386	521778	60.165979921673	0
386	521933	60.170979921673	0
386	523362	60.213978373121	0
386	523590	60.218978373121	0
386	524421	60.236643356277	0
386	524811	60.241643356277	0
386	527367	60.306406718944	0
386	527388	60.311406718944	0
386	528054	60.331238253212	0
386	528259	60.336238253212	0
386	529083	60.355522453453	0
386	529087	60.360522453453	0
386	530648	60.401630259169	0
386	530973	60.406630259169	0
386	531785	60.430315203106	0
386	532015	60.435315203106	0
386	534544	60.525305636455	0
386	534693	60.530305636455	0
386	539617	60.678186901286	0
386	539970	60.683186901286	0
386	542690	60.766310356422	0
386	543068	60.771310356422	0
386	544399	60.816822927211	1
386	544659	60.821822927211	0
386	546144	60.850717792211	76
386	546374	60.855717792211	0
386	547859	60.877403986691	12
386	547905	60.882403986691	0
386	549314	60.902029533233	96
386	549608	60.907029533233	0
386	551550	60.941157444972	33
386	552414	60.946157444972	8
386	553016	60.951157444972	0
386	554902	60.974758432995	15
386	554954	60.979758432995	0
386	556532	61.000818234615	1
386	556578	61.005818234615	0
386	557749	61.026101769617	88
386	558078	61.031101769617	0
386	558123	61.036101769617	0
386	558945	61.050849000558	42
386	559694	61.055849000558	11
386	559730	61.060849000558	0
386	560076	61.074387460064	0
386	560866	61.079387460064	8
386	561198	61.084387460064	0
386	562702	61.115014685386	17
386	562732	61.120014685386	0
386	563590	61.137597920141	20
386	563766	61.142597920141	0
386	564391	61.158007821872	0
386	564888	61.163007821872	0
386	565165	61.169855223219	16
386	565187	61.174855223219	0
386	565368	61.179855223219	0
386	566042	61.190967135691	31
386	566087	61.195967135691	0
386	566351	61.204879397586	15
386	566387	61.209879397586	0
386	567219	61.215444703537	72
386	567308	61.220444703537	0
386	568395	61.238548276707	93
386	568675	61.243548276707	0
386	568702	61.248548276707	0
386	570806	61.291690970637	79
386	570823	61.296690970637	0
386	571718	61.317035481514	7
386	571740	61.322035481514	0
386	573333	61.368784017633	0
386	573356	61.373784017633	0
386	573941	61.387403029747	0
386	573971	61.392403029747	0
386	574014	61.400162539178	0
386	574459	61.405162539178	0
386	575127	61.410162539178	0
386	575865	61.434197324207	0
386	576196	61.439197324207	0
386	577700	61.469275290701	0
386	578172	61.474275290701	0
386	579152	61.497901553465	0
386	579180	61.502901553465	0
386	579737	61.522368818726	11
386	580020	61.527368818726	0
386	580632	61.547571016861	0
386	580782	61.552571016861	0
386	580802	61.557571016861	0
386	582066	61.59007825337	0
386	582394	61.59507825337	0
386	584360	61.629580718201	0
386	584511	61.634580718201	0
386	586339	61.693286293803	0
386	586353	61.698286293803	0
386	589170	61.765837576237	0
386	589184	61.770837576237	0
386	590964	61.841120921059	0
386	591112	61.846120921059	0
386	593268	61.902810934206	0
386	593539	61.907810934206	0
386	597395	62.041411043742	0
386	597403	62.046411043742	0
386	598950	62.098257055618	0
386	599227	62.103257055618	0
386	600749	62.161453736864	0
386	600887	62.166453736864	0
386	601484	62.193019061232	0
386	601888	62.198019061232	0
386	602735	62.223245608918	0
386	602739	62.228245608918	0
386	604260	62.295724734626	0
386	604285	62.300724734626	0
386	604647	62.343865848272	0
386	604657	62.348865848272	0
386	606138	62.410717623138	0
386	606147	62.415717623138	0
386	606771	62.425644760637	0
386	606775	62.430644760637	0
386	606928	62.441038841997	0
386	606929	62.446038841997	0
386	609147	62.54134877019	0
386	609151	62.54634877019	0
386	612038	64.304862088584	0
386	612039	64.309862088584	0
386	612682	64.326840098166	0
386	612686	64.331840098166	0
386	613894	64.861205509482	0
386	613896	64.866205509482	0
386	614037	64.874794712576	0