file 266102 1353025260                                          
version 2
run AODVScenario_1f-63-20121116-00:20:17-2320
attr configname AODVScenario_1f
attr datetime 20121116-00:20:17
attr experiment AODVScenario_1f
attr inifile AODV.ini
attr iterationvars $numNodes=113
attr iterationvars2 "$numNodes=113, $repetition=0"
attr measurement $numNodes=113
attr network csma802154net
attr numNodes 113
attr processid 2320
attr repetition 0
attr replication #0
attr resultdir results
attr runnumber 63
attr seedset 63

vector 463  csma802154net.dataCentricNetworkMan  RREQPacketFrequency  ETV
vector 464  csma802154net.dataCentricNetworkMan  RERRPacketFrequency  ETV
vector 465  csma802154net.dataCentricNetworkMan  DiscoveryPacketFrequency  ETV
vector 466  csma802154net.dataCentricNetworkMan  RegisterPacketFrequency  ETV
vector 467  csma802154net.dataCentricNetworkMan  RReplyPacketFrequency  ETV
vector 468  csma802154net.dataCentricNetworkMan  AODVDataPacketFrequency  ETV
vector 475  csma802154net.dataCentricNetworkMan  pendingRegistrationVector  ETV
vector 474  csma802154net.dataCentricNetworkMan  pendingRREQVector  ETV
vector 472  csma802154net.dataCentricNetworkMan  PendingDataPacketsVector  ETV
vector 478  csma802154net.fixhost[2].udpApp  "End-to-end delay"  ETV
vector 460  csma802154net.dataCentricNetworkMan  dataPacketE2EDelay  ETV
vector 479  csma802154net.fixhost[3].udpApp  "End-to-end delay"  ETV
vector 503  csma802154net.fixhost[27].udpApp  "End-to-end delay"  ETV
vector 512  csma802154net.fixhost[36].udpApp  "End-to-end delay"  ETV
vector 488  csma802154net.fixhost[12].udpApp  "End-to-end delay"  ETV
vector 489  csma802154net.fixhost[13].udpApp  "End-to-end delay"  ETV
vector 483  csma802154net.fixhost[7].udpApp  "End-to-end delay"  ETV
vector 491  csma802154net.fixhost[15].udpApp  "End-to-end delay"  ETV
460	1806 4750 1365382 3221642 70.034516055899 7273.029316098421 104 0.011196040025 0.055804098419 2.695951429521 0.082414201721408
463	6556 40625 897 3221908 1.005 7273.03501 1405 0 148 3373 281413
464	47181 40568 897 3221908 1.005 7273.03501 1405 0 0 0 0
465	87749 40568 897 3221908 1.005 7273.03501 1405 0 0 0 0
466	128317 40568 897 3221908 1.005 7273.03501 1405 0 1 12 12
467	168885 40585 897 3221908 1.005 7273.03501 1405 0 128 1981 111037
468	209470 40587 897 3221908 1.005 7273.03501 1405 0 120 1474 93834
472	250057 9543 1363165 3221642 70 7273.029316098421 312 0 2 260 364
474	259600 1279 54662 1355152 43.50001 54.77857094902 45 0 1 18 18
475	260879 473 54657 1346485 43.5 54.716622107318 20 0 5 48 150
478	261352 591 1365382 3209262 70.034516055899 7270.020436055901 13 0.014996055901 0.050692055896 0.295708726705 0.0079222637961007
479	261943 593 1366572 3210452 70.043684077429 7270.03056407743 13 0.020396077432 0.046812077431 0.437725006605 0.015979446683053
483	262536 595 1376645 3220518 73.023276067184 7273.022956067184 13 0.018156067184 0.054172067183 0.332380873386 0.0094784699569381
488	263131 595 1372973 3216257 72.030244070178 7272.022316070176 13 0.021036070178 0.052572070176 0.374796912305 0.012146224588403
489	263726 595 1373594 3217468 72.034364096259 7272.028924096257 13 0.023236096259 0.054204096259 0.428141251359 0.015237960392255
491	264321 591 1377775 3221642 73.032444098421 7273.029316098421 13 0.027964098421 0.055804098419 0.435501279467 0.015575671212359
503	264912 595 1368604 3212483 71.015356040025 7271.013436040025 13 0.011196040025 0.015676040025 0.166988520321 0.0021681236553136
512	265507 595 1369172 3213052 71.019476066106 7271.018516066106 13 0.015636066105 0.019476066106 0.224708859373 0.0039060414369862
