version 2
run AODVScenario_1f-9-20121121-11:38:45-392
attr configname AODVScenario_1f
attr datetime 20121121-11:38:45
attr experiment AODVScenario_1f
attr inifile AODV.ini
attr iterationvars $numNodes=59
attr iterationvars2 "$numNodes=59, $repetition=0"
attr measurement $numNodes=59
attr network csma802154net
attr numNodes 59
attr processid 392
attr repetition 0
attr replication #0
attr resultdir results
attr runnumber 9
attr seedset 9

vector 247  csma802154net.dataCentricNetworkMan  RREQPacketFrequency  ETV
vector 248  csma802154net.dataCentricNetworkMan  RERRPacketFrequency  ETV
vector 249  csma802154net.dataCentricNetworkMan  DiscoveryPacketFrequency  ETV
vector 250  csma802154net.dataCentricNetworkMan  RegisterPacketFrequency  ETV
vector 251  csma802154net.dataCentricNetworkMan  RReplyPacketFrequency  ETV
vector 252  csma802154net.dataCentricNetworkMan  AODVDataPacketFrequency  ETV
vector 259  csma802154net.dataCentricNetworkMan  pendingRegistrationVector  ETV
vector 258  csma802154net.dataCentricNetworkMan  pendingRREQVector  ETV
vector 253  csma802154net.dataCentricNetworkMan  AODVDataLineBreakVector  ETV
vector 256  csma802154net.dataCentricNetworkMan  PendingDataPacketsVector  ETV
vector 270  csma802154net.fixhost[10].udpApp  "End-to-end delay"  ETV
vector 244  csma802154net.dataCentricNetworkMan  dataPacketE2EDelay  ETV
vector 276  csma802154net.fixhost[16].udpApp  "End-to-end delay"  ETV
vector 272  csma802154net.fixhost[12].udpApp  "End-to-end delay"  ETV
vector 264  csma802154net.fixhost[4].udpApp  "End-to-end delay"  ETV
vector 265  csma802154net.fixhost[5].udpApp  "End-to-end delay"  ETV
vector 262  csma802154net.fixhost[2].udpApp  "End-to-end delay"  ETV
vector 263  csma802154net.fixhost[3].udpApp  "End-to-end delay"  ETV
vector 266  csma802154net.fixhost[6].udpApp  "End-to-end delay"  ETV
vector 273  csma802154net.fixhost[13].udpApp  "End-to-end delay"  ETV
vector 279  csma802154net.fixhost[19].udpApp  "End-to-end delay"  ETV
vector 275  csma802154net.fixhost[15].udpApp  "End-to-end delay"  ETV
244	360302	70.00771602483	0.00771602483
244	360903	70.018196078051	0.018196078051
244	361211	70.022356057249	0.022356057249
244	362933	71.020684054227	0.020684054227
244	363252	71.024804081159	0.024804081159
244	366265	72.036924087754	0.036924087754
244	366590	72.040972106689	0.040972106689
244	367552	72.057140141924	0.057140141924
244	370213	73.045876125156	0.045876125156
244	371684	73.082204193202	0.082204193202
244	372014	73.095964172296	0.095964172296
244	444851	670.008676024831	0.008676024831
244	445466	670.01627605725	0.01627605725
244	445901	670.041804078051	0.041804078051
244	447575	671.018836054227	0.018836054227
244	447895	671.023276081159	0.023276081159
244	451043	672.042316162489	0.042316162489
244	451366	672.044772132914	0.044772132914
244	452324	672.074804206996	0.074804206996
244	454521	673.026756079995	0.026756079995
244	456291	673.042636127134	0.042636127134
244	457080	673.068092139063	0.068092139063
244	529928	1270.007076024831	0.007076024831
244	530532	1270.014996078052	0.014996078052
244	530840	1270.01844405725	0.01844405725
244	532501	1271.017556054227	0.017556054227
244	532818	1271.020076081159	0.020076081159
244	535312	1272.031236087755	0.031236087755
244	536569	1272.05828412927	0.05828412927
244	537525	1272.069404173776	0.069404173776
244	540182	1273.039796125155	0.039796125155
244	541520	1273.0565321932	0.0565321932
244	542322	1273.084300172294	0.084300172294
244	615218	1870.009316024831	0.009316024831
244	615958	1870.01883605725	0.01883605725
244	616265	1870.043404078051	0.043404078051
244	617646	1871.015636054226	0.015636054226
244	618264	1871.025124081158	0.025124081158
244	620943	1872.037876132914	0.037876132914
244	621598	1872.048964162489	0.048964162489
244	622560	1872.064812206996	0.064812206996
244	624616	1873.024196079996	0.024196079996
244	626270	1873.039404118158	0.039404118158
244	627271	1873.068700130086	0.068700130086
244	700119	2470.008356024831	0.008356024831
244	700724	2470.017556078052	0.017556078052
244	701032	2470.02324405725	0.02324405725
244	702718	2471.016844054227	0.016844054227
244	703033	2471.018796081158	0.018796081158
244	705106	2472.023556087755	0.023556087755
244	706128	2472.036244106689	0.036244106689
244	707456	2472.073780141925	0.073780141925
244	709576	2473.027396079996	0.027396079996
244	711385	2473.066812140738	0.066812140738
244	712031	2473.092660161644	0.092660161644
244	784879	3070.007076024831	0.007076024831
244	785486	3070.014356078052	0.014356078052
244	785791	3070.016844057249	0.016844057249
244	787175	3071.014356054227	0.014356054227
244	787788	3071.021356081159	0.021356081159
244	790463	3072.034356132915	0.034356132915
244	791245	3072.04295616249	0.04295616249
244	792212	3072.077044206995	0.077044206995
244	794268	3073.021316079996	0.021316079996
244	796179	3073.036524118156	0.036524118156
244	796497	3073.039404130085	0.039404130085
244	869404	3670.009636024831	0.009636024831
244	870008	3670.017556078052	0.017556078052
244	870742	3670.04845205725	0.04845205725
244	872420	3671.022636081159	0.022636081159
244	872749	3671.034052054227	0.034052054227
244	875433	3672.035316132915	0.035316132915
244	876743	3672.049460162489	0.049460162489
244	877052	3672.052404206996	0.052404206996
244	879172	3673.027396079994	0.027396079994
244	881168	3673.070972140737	0.070972140737
244	881482	3673.072892161643	0.072892161643
244	954330	4270.007076024831	0.007076024831
244	954931	4270.01691607805	0.01691607805
244	955238	4270.019796057248	0.019796057248
244	956912	4271.019436081159	0.019436081159
244	957239	4271.022284054227	0.022284054227
244	959383	4272.032196087754	0.032196087754
244	960707	4272.067172129268	0.067172129268
244	961663	4272.077332173775	0.077332173775
244	964013	4273.026116079995	0.026116079995
244	965150	4273.037164118157	0.037164118157
244	966095	4273.069020130084	0.069020130084
244	1038943	4870.007396024831	0.007396024831
244	1039547	4870.014356078052	0.014356078052
244	1039856	4870.02068405725	0.02068405725
244	1041535	4871.019156054227	0.019156054227
244	1041855	4871.021996081159	0.021996081159
244	1044056	4872.025156087755	0.025156087755
244	1045138	4872.05352410669	0.05352410669
244	1046400	4872.088252141925	0.088252141925
244	1048897	4873.030876102576	0.030876102576
244	1050373	4873.048316181274	0.048316181274
244	1050692	4873.054004188826	0.054004188826
244	1123600	5470.011556024831	0.011556024831
244	1124215	5470.019476057249	0.019476057249
244	1124517	5470.025804078052	0.025804078052
244	1126187	5471.021996081159	0.021996081159
244	1126514	5471.025804054227	0.025804054227
244	1128888	5472.023556087755	0.023556087755
244	1129839	5472.03755612927	0.03755612927
244	1130801	5472.052764173776	0.052764173776
244	1132983	5473.025156079996	0.025156079996
244	1134737	5473.060204118158	0.060204118158
244	1136006	5473.091420130085	0.091420130085
244	1208854	6070.009636024831	0.009636024831
244	1209470	6070.01883605725	0.01883605725
244	1209773	6070.026124078052	0.026124078052
244	1211154	6071.016916054227	0.016916054227
244	1211772	6071.026724081159	0.026724081159
244	1213849	6072.029316087754	0.029316087754
244	1215095	6072.040404106689	0.040404106689
244	1216057	6072.053372141925	0.053372141925
244	1218235	6073.023876079995	0.023876079995
244	1219818	6073.054444118156	0.054444118156
244	1220465	6073.062692130083	0.062692130083
244	1293314	6670.010916024831	0.010916024831
244	1293929	6670.01979605725	0.01979605725
244	1294231	6670.025164078052	0.025164078052
244	1295914	6671.020364054226	0.020364054226
244	1296233	6671.023844081158	0.023844081158
244	1299200	6672.035636132914	0.035636132914
244	1299520	6672.039116162489	0.039116162489
244	1300806	6672.071284206996	0.071284206996
244	1303003	6673.026756079996	0.026756079996
244	1304577	6673.041356127136	0.041356127136
244	1305223	6673.065924139064	0.065924139064
244	1378130	7270.008996024831	0.008996024831
244	1378738	7270.017236078051	0.017236078051
244	1379042	7270.019404057249	0.019404057249
244	1380427	7271.015316054227	0.015316054227
244	1381506	7271.046884081159	0.046884081159
244	1383886	7272.026116087755	0.026116087755
244	1384833	7272.040364129268	0.040364129268
244	1385795	7272.057244173775	0.057244173775
244	1388277	7273.028316102575	0.028316102575
244	1389277	7273.043524149715	0.043524149715
244	1390222	7273.058924130086	0.058924130086
247	471	1.005	1
247	623	1.01	12
247	726	1.015	0
247	1322	1.020416404094	30
247	2054	1.025416404094	67
247	2990	1.030416404094	49
247	4067	1.035416404094	45
247	5217	1.040416404094	39
247	5911	1.045416404094	18
247	6618	1.050416404094	43
247	7048	1.055416404094	38
247	7493	1.060416404094	15
247	7785	1.065416404094	32
247	8285	1.070416404094	23
247	8575	1.075416404094	36
247	8930	1.080416404094	32
247	9344	1.085416404094	21
247	9738	1.090416404094	16
247	9837	1.095416404094	9
247	9838	1.100416404094	0
247	10296	1.109018855601	43
247	10297	1.114018855601	0
247	15425	43.505	1
247	15432	43.51	0
247	16592	43.520527574328	22
247	17364	43.525527574328	0
247	18373	43.535357791627	0
247	18536	43.540357791627	0
247	18904	43.545357791627	0
247	19372	43.550357791627	0
247	19935	43.555357791627	0
247	20328	43.560357791627	0
247	21076	43.565357791627	0
247	21791	43.572269782586	0
247	22317	43.577269782586	0
247	22730	43.582269782586	0
247	24908	43.60239916884	0
247	25563	43.60739916884	0
247	26006	43.61239916884	0
247	26574	43.61739916884	0
247	27029	43.62239916884	0
247	27739	43.628494155404	0
247	28185	43.633494155404	0
247	28777	43.638494155404	0
247	29779	43.647487725154	0
247	30268	43.652487725154	0
247	30981	43.662625918584	0
247	31414	43.667625918584	0
247	33226	43.696613807767	0
247	33521	43.701613807767	0
247	34366	43.7138112535	0
247	34743	43.7188112535	0
247	35305	43.727456009609	0
247	35858	43.732456009609	0
247	36054	43.737456009609	0
247	36716	43.744866282675	0
247	37129	43.749866282675	0
247	37580	43.754866282675	0
247	37943	43.759866282675	0
247	38360	43.764866282675	0
247	38430	43.773354428864	0
247	38647	43.778354428864	0
247	38925	43.783354428864	0
247	39220	43.794967905672	0
247	39221	43.799967905672	0
247	39715	43.811725787971	0
247	39916	43.816725787971	0
247	39917	43.821725787971	0
247	40284	43.837275269844	0
247	40586	43.842275269844	0
247	40793	43.847275269844	0
247	40794	43.852275269844	0
247	40920	44.505	1
247	40995	44.51	0
247	41959	44.51683526369	21
247	42728	44.52183526369	0
247	43451	44.527230934308	0
247	44152	44.532230934308	0
247	44368	44.538672931793	0
247	45079	44.543672931793	0
247	45773	44.548672931793	0
247	46385	44.55569904674	0
247	47004	44.56069904674	0
247	47412	44.56569904674	0
247	47977	44.57069904674	0
247	48366	44.57569904674	0
247	49002	44.58069904674	0
247	49346	44.58569904674	0
247	49853	44.59069904674	0
247	50367	44.59569904674	0
247	51090	44.603360602144	0
247	51517	44.608360602144	0
247	52111	44.614156085992	0
247	52636	44.619156085992	0
247	53456	44.631632621644	0
247	53849	44.636632621644	0
247	54521	44.641739245976	0
247	54961	44.646739245976	0
247	55244	44.651739245976	0
247	55962	44.65883525684	0
247	56180	44.66383525684	0
247	56937	44.67181903194	0
247	57159	44.67681903194	0
247	58220	44.687779224289	0
247	58712	44.692779224289	0
247	59068	44.698755482947	0
247	59431	44.703755482947	0
247	60063	44.716497035703	0
247	60428	44.721497035703	0
247	60947	44.726497035703	0
247	61464	44.731497035703	0
247	62287	44.736497035703	0
247	62432	44.741497035703	0
247	62656	44.747523057172	0
247	62725	44.752523057172	0
247	62954	44.758592121282	0
247	63237	44.763592121282	0
247	63538	44.774299141518	0
247	63539	44.779299141518	0
247	64399	44.829816148599	0
247	64473	44.834816148599	0
247	64685	44.839816148599	0
247	65322	44.912093758614	0
247	65559	44.917093758614	0
247	65560	44.922093758614	0
247	65686	45.505	1
247	65693	45.51	0
247	66635	45.519282763022	19
247	67300	45.524282763022	0
247	67911	45.529282763022	0
247	68340	45.534282763022	0
247	68571	45.539282763022	0
247	68953	45.544282763022	0
247	69313	45.549282763022	0
247	69611	45.554282763022	0
247	69907	45.560781029029	0
247	70143	45.565781029029	0
247	71259	45.578421168134	0
247	71562	45.583421168134	0
247	72675	45.593816207625	0
247	73187	45.598816207625	0
247	74213	45.608405486037	0
247	74647	45.613405486037	0
247	75017	45.618405486037	0
247	75511	45.623405486037	0
247	76133	45.629659560043	0
247	76652	45.634659560043	0
247	77499	45.639688235028	0
247	77934	45.644688235028	0
247	78745	45.655110764006	0
247	79193	45.660110764006	0
247	79862	45.665139406323	0
247	80286	45.670139406323	0
247	82044	45.695536249784	0
247	82488	45.700536249784	0
247	83122	45.705536249784	0
247	83784	45.714315434216	0
247	84142	45.719315434216	0
247	84745	45.725427756286	0
247	85114	45.730427756286	0
247	85419	45.735427756286	0
247	85713	45.740427756286	0
247	86177	45.745427756286	0
247	86568	45.750622077932	0
247	87044	45.755622077932	0
247	88117	45.781086450172	0
247	88268	45.786086450172	0
247	89004	45.802695020411	0
247	89224	45.807695020411	0
247	89304	45.812695020411	0
247	90274	45.841901671518	0
247	90710	45.846901671518	0
247	91514	45.858278954347	0
247	91801	45.863278954347	0
247	91927	46.505	1
247	92002	46.51	0
247	93207	46.515531581985	29
247	94078	46.520531581985	0
247	94827	46.525531581985	0
247	95711	46.530531581985	0
247	96099	46.535531581985	0
247	96729	46.540531581985	24
247	97986	46.545531581985	19
247	98941	46.550531581985	11
247	99909	46.555531581985	19
247	100681	46.560531581985	20
247	101878	46.565531581985	11
247	102682	46.570531581985	0
247	103545	46.575531581985	18
247	104629	46.580531581985	23
247	104944	46.585531581985	0
247	105834	46.59070415896	15
247	106722	46.59570415896	9
247	107446	46.60070415896	0
247	107971	46.60570415896	0
247	108893	46.614611991131	0
247	109322	46.619611991131	0
247	109927	46.625850194455	0
247	110360	46.630850194455	0
247	110963	46.636103637745	0
247	111474	46.641103637745	0
247	112108	46.646103637745	0
247	112710	46.651103637745	0
247	113539	46.656103637745	0
247	114184	46.661103637745	0
247	114775	46.666103637745	0
247	115088	46.671103637745	0
247	115624	46.676103637745	0
247	116200	46.681103637745	0
247	117625	46.702247946944	0
247	118167	46.707247946944	0
247	118752	46.712247946944	0
247	119403	46.717247946944	0
247	119728	46.722247946944	0
247	120049	46.727247946944	0
247	121056	46.734569590752	0
247	121492	46.739569590752	0
247	121998	46.744569590752	0
247	122382	46.749569590752	0
247	122754	46.754569590752	0
247	123210	46.760407884148	0
247	123823	46.765407884148	0
247	124992	46.780610565886	0
247	125494	46.785610565886	0
247	126289	46.792209888875	0
247	126724	46.797209888875	0
247	127266	46.807212273899	0
247	127797	46.812212273899	0
247	128536	46.818588013766	0
247	129055	46.823588013766	0
247	129336	46.828588013766	0
247	129572	46.833588013766	0
247	129574	46.838588013766	0
247	130457	46.854642957509	0
247	130758	46.859642957509	0
247	130764	46.864642957509	0
247	131679	46.875821190489	0
247	131899	46.880821190489	0
247	131974	46.90522996235	0
247	131975	46.91022996235	0
247	132110	47.505	1
247	132754	47.51	30
247	134026	47.515	0
247	134668	47.52	0
247	135363	47.525	0
247	136114	47.531290441902	0
247	136680	47.536290441902	0
247	137467	47.541290441902	0
247	138036	47.546290441902	11
247	138661	47.551290441902	0
247	139666	47.556290441902	18
247	140688	47.561290441902	20
247	141445	47.566290441902	8
247	142499	47.571290441902	17
247	143270	47.576290441902	21
247	144194	47.581290441902	9
247	145189	47.586290441902	18
247	145632	47.591290441902	16
247	146561	47.596290441902	17
247	147277	47.601290441902	35
247	147804	47.606290441902	0
247	148558	47.61250547878	0
247	148956	47.61750547878	0
247	149981	47.624568409708	0
247	150601	47.629568409708	0
247	151374	47.634568409708	0
247	152213	47.639568409708	18
247	152666	47.644568409708	0
247	153133	47.649568409708	0
247	154308	47.661028618712	0
247	154595	47.666028618712	0
247	154992	47.671028618712	0
247	155648	47.676028618712	0
247	156190	47.681028618712	0
247	156652	47.686028618712	0
247	157214	47.692112435371	0
247	157805	47.697112435371	0
247	158308	47.702929246105	0
247	159040	47.707929246105	0
247	159497	47.712929246105	0
247	159815	47.717929246105	0
247	160347	47.722929246105	0
247	160789	47.727929246105	0
247	161071	47.732929246105	0
247	161604	47.737929246105	0
247	162187	47.742929246105	0
247	162594	47.747929246105	0
247	162903	47.752929246105	0
247	163226	47.75876713911	0
247	163809	47.76376713911	0
247	164237	47.76876713911	0
247	164853	47.776684733606	0
247	165398	47.781684733606	0
247	165988	47.786684733606	0
247	166503	47.791684733606	0
247	166504	47.796684733606	0
247	166819	47.810784418342	0
247	167109	47.815784418342	0
247	167411	47.832537871428	0
247	167788	47.837537871428	0
247	168001	47.842537871428	0
247	168436	47.868536073997	0
247	168437	47.873536073997	0
247	169035	47.895890492313	0
247	169036	47.900890492313	0
247	169162	48.505	1
247	169169	48.51	0
247	170398	48.518765360381	27
247	171621	48.523765360381	0
247	172270	48.528765360381	0
247	172950	48.533765360381	0
247	173452	48.538765360381	0
247	174009	48.543765360381	0
247	175104	48.549806562549	0
247	175847	48.554806562549	0
247	176563	48.559806562549	0
247	177091	48.564806562549	0
247	177430	48.569806562549	0
247	178122	48.574806562549	0
247	179028	48.579806562549	0
247	179848	48.584806562549	0
247	180309	48.589806562549	0
247	180928	48.594806562549	0
247	181685	48.599806562549	0
247	183070	48.609282240581	0
247	183804	48.614282240581	0
247	184394	48.619282240581	0
247	185255	48.627576113812	0
247	185864	48.632576113812	0
247	187020	48.640734226445	0
247	187701	48.645734226445	0
247	188236	48.650734226445	0
247	188893	48.655734226445	0
247	189311	48.660734226445	0
247	190437	48.672462961064	0
247	190948	48.677462961064	0
247	191475	48.685207543652	0
247	192049	48.690207543652	0
247	192740	48.696398264394	0
247	193280	48.701398264394	0
247	193354	48.706398264394	0
247	193651	48.713424108858	0
247	193964	48.718424108858	0
247	194633	48.726306581753	0
247	194866	48.731306581753	0
247	195008	48.736306581753	0
247	195317	48.741883094919	0
247	195537	48.746883094919	0
247	196074	48.751883094919	0
247	196374	48.756883094919	0
247	196599	48.761883094919	0
247	197126	48.767138125471	0
247	197423	48.772138125471	0
247	198100	48.796276231296	0
247	198255	48.801276231296	0
247	199706	48.838687580075	0
247	199710	48.843687580075	0
247	200014	48.865376140216	0
247	200015	48.870376140216	0
247	200169	49.505	1
247	200238	49.51	0
247	200617	49.515065099623	9
247	201210	49.520065099623	0
247	201747	49.525065099623	0
247	202212	49.530065099623	0
247	202497	49.535065099623	0
247	203048	49.540065099623	0
247	203511	49.545065099623	0
247	203884	49.550065099623	0
247	204244	49.555065099623	0
247	204483	49.560065099623	0
247	205102	49.565065099623	0
247	205961	49.570065099623	0
247	206547	49.575065099623	0
247	206890	49.580065099623	0
247	207034	49.585065099623	0
247	207950	49.601921863825	0
247	208517	49.606921863825	0
247	208957	49.611921863825	0
247	209308	49.616921863825	0
247	209759	49.633621178727	0
247	209994	49.638621178727	0
247	210818	49.693264930046	0
247	210888	49.698264930046	0
247	211035	50.505	1
247	211273	50.51	16
247	211846	50.515	0
247	212468	50.52	0
247	213177	50.525	23
247	214279	50.53	0
247	214952	50.535	11
247	216250	50.54	59
247	217221	50.545	33
247	218006	50.55	30
247	219169	50.555	42
247	220141	50.56	41
247	220976	50.565	36
247	222004	50.57	16
247	222667	50.575	12
247	223213	50.58	26
247	223837	50.585	25
247	224237	50.59	19
247	224931	50.595	19
247	225663	50.6	0
247	226385	50.605	16
247	226852	50.61	0
247	227468	50.615	0
247	228155	50.62	0
247	228614	50.625	0
247	229432	50.63	0
247	229977	50.635	0
247	230863	50.64	0
247	231538	50.645	0
247	232142	50.65	0
247	232895	50.655	0
247	233196	50.66	0
247	233888	50.665047934763	4
247	234501	50.670047934763	0
247	234776	50.675047934763	0
247	235385	50.680120019454	0
247	235789	50.685120019454	0
247	235963	50.690120019454	0
247	236332	50.695120019454	0
247	236922	50.701638486551	15
247	237362	50.706638486551	0
247	237677	50.711638486551	0
247	237911	50.716638486551	0
247	238648	50.725690942335	0
247	239227	50.730690942335	0
247	239647	50.736997794264	0
247	239887	50.741997794264	0
247	240120	50.746997794264	0
247	240579	50.753926778314	0
247	241244	50.758926778314	0
247	241394	50.763926778314	0
247	241722	50.768926778314	0
247	242022	50.773926778314	0
247	242333	50.778926778314	0
247	242735	50.785290656905	0
247	242978	50.790290656905	0
247	243444	50.795290656905	0
247	243835	50.800290656905	0
247	243836	50.805290656905	0
247	244148	50.823038846306	0
247	244149	50.828038846306	0
247	244777	50.845887948582	0
247	245092	50.850887948582	0
247	245382	50.855887948582	0
247	245601	51.505	1
247	245916	51.51	10
247	246698	51.515	0
247	247235	51.52	0
247	247907	51.525	0
247	248272	51.53	0
247	248861	51.535	0
247	249372	51.54	0
247	249973	51.546582403449	0
247	250304	51.551582403449	0
247	250812	51.556582403449	0
247	251195	51.561582403449	0
247	251509	51.566582403449	0
247	252105	51.571582403449	0
247	252206	51.576582403449	0
247	252597	51.583882312737	0
247	253171	51.588882312737	0
247	253755	51.593882312737	0
247	254218	51.598882312737	0
247	254519	51.603882312737	0
247	255128	51.618041419485	0
247	255659	51.623041419485	0
247	255735	51.628041419485	0
247	255883	51.635041446126	0
247	255884	51.640041446126	0
247	256496	51.648887594175	0
247	256498	51.653887594175	0
247	257119	51.711888142392	0
247	257120	51.716888142392	0
247	257316	52.505	1
247	257391	52.51	0
247	258833	52.515330011891	30
247	259859	52.520330011891	0
247	260531	52.525330011891	0
247	261660	52.530945339522	0
247	262420	52.535945339522	0
247	263365	52.540945339522	0
247	264789	52.551713673924	0
247	265474	52.556713673924	0
247	266195	52.561713673924	0
247	266776	52.566713673924	0
247	267586	52.571713673924	0
247	268775	52.581642938835	0
247	269401	52.586642938835	0
247	272656	52.610907391739	0
247	273212	52.615907391739	0
247	273972	52.620907391739	0
247	275224	52.632725802869	0
247	275856	52.637725802869	0
247	276456	52.642725802869	0
247	277258	52.647725802869	0
247	278151	52.652725802869	0
247	279085	52.662811676651	0
247	279321	52.667811676651	0
247	279669	52.673474937496	0
247	280430	52.678474937496	0
247	281109	52.683474937496	0
247	282047	52.689176206526	0
247	282588	52.694176206526	0
247	282985	52.699176206526	0
247	283604	52.704176206526	0
247	284478	52.709176206526	0
247	284877	52.714176206526	0
247	286116	52.724917713822	0
247	286717	52.729917713822	0
247	287123	52.734917713822	0
247	287731	52.739917713822	0
247	288459	52.749270059956	0
247	288935	52.754270059956	0
247	289581	52.759270059956	0
247	290346	52.764270059956	0
247	290953	52.769270059956	0
247	291661	52.774458954209	0
247	291897	52.779458954209	0
247	292823	52.784458954209	0
247	293276	52.789458954209	0
247	293816	52.794973754778	0
247	294367	52.799973754778	0
247	295023	52.804973754778	0
247	295637	52.809973754778	0
247	296228	52.814973754778	0
247	296553	52.820880183541	0
247	297194	52.825880183541	0
247	297573	52.830880183541	0
247	298070	52.835880183541	0
247	298668	52.840880183541	0
247	299405	52.853821815065	0
247	300062	52.858821815065	0
247	300634	52.863821815065	0
247	301091	52.868821815065	0
247	301382	52.873821815065	0
247	301695	52.896082726282	0
247	301699	52.901082726282	0
247	302333	52.909209348802	0
247	302334	52.914209348802	0
247	302524	53.505	1
247	302772	53.51	14
247	303524	53.515	0
247	304369	53.52	0
247	305007	53.525	0
247	305631	53.53	0
247	306227	53.535	0
247	306874	53.54	0
247	307550	53.545	0
247	308160	53.55	0
247	308473	53.555	0
247	308999	53.56	0
247	309471	53.565	0
247	309968	53.57	0
247	311340	53.58502985254	0
247	311746	53.59002985254	0
247	312190	53.59502985254	0
247	312835	53.603908547359	0
247	313323	53.608908547359	0
247	313552	53.615699134623	0
247	314103	53.620699134623	0
247	314582	53.625699134623	0
247	314893	53.630699134623	0
247	316214	53.643486334875	0
247	316853	53.648486334875	0
247	317438	53.653486334875	0
247	318182	53.665582475736	0
247	318430	53.670582475736	0
247	318764	53.675582475736	0
247	319334	53.680582475736	0
247	319823	53.685582475736	0
247	320286	53.690585121071	0
247	321125	53.695585121071	0
247	321422	53.700585121071	0
247	321724	53.705585121071	0
247	322677	53.717886468279	0
247	322841	53.722886468279	0
247	323778	54.505	1
247	323847	54.51	0
247	325026	54.515438995369	26
247	325719	54.520438995369	0
247	326657	54.526661064207	0
247	327232	54.531661064207	0
247	327733	54.537862001096	0
247	328401	54.542862001096	0
247	329004	54.547862001096	0
247	329413	54.552862001096	0
247	330272	54.557902799503	0
247	330996	54.562902799503	0
247	331612	54.567902799503	0
247	332561	54.572902799503	0
247	333236	54.577902799503	0
247	334053	54.582902799503	0
247	334776	54.589439905414	0
247	335309	54.594439905414	0
247	336016	54.600025181508	0
247	336591	54.605025181508	0
247	337990	54.616354190631	0
247	338178	54.621354190631	0
247	338878	54.62841929008	0
247	339466	54.63341929008	0
247	339930	54.63841929008	0
247	341242	54.651884409825	0
247	341856	54.656884409825	0
247	342887	54.666084921781	0
247	343540	54.671084921781	0
247	344144	54.676084921781	0
247	344700	54.681084921781	0
247	345265	54.687041546266	0
247	345502	54.692041546266	0
247	346674	54.706619829921	0
247	347318	54.711619829921	0
247	347707	54.716619829921	0
247	348414	54.721919935584	0
247	348594	54.726919935584	0
247	349348	54.734377278094	0
247	349958	54.739377278094	0
247	350366	54.744377278094	0
247	351089	54.749377278094	0
247	351418	54.754377278094	0
247	351754	54.759377278094	0
247	352211	54.764377278094	0
247	352428	54.769377278094	0
247	352752	54.774492435279	0
247	353243	54.779492435279	0
247	353336	54.784492435279	0
247	354142	54.797704333868	0
247	354530	54.802704333868	0
247	354779	54.807704333868	0
247	354849	54.812704333868	0
247	355492	54.821844574972	0
247	355744	54.826844574972	0
247	355974	54.831844574972	0
247	356773	54.893735979455	0
247	357366	54.898735979455	0
247	357525	54.903735979455	0
247	360157	70.00501	0
247	360461	70.01001	0
247	360758	70.01501	0
247	361058	70.02001	0
247	361368	70.02501	0
247	361369	70.03001	0
247	361842	71.00501	0
247	362151	71.01001	0
247	362458	71.01501	0
247	362834	71.02001	0
247	363319	71.02501	0
247	363414	71.03001	0
247	363872	72.00501	0
247	364202	72.01001	0
247	364521	72.01501	0
247	364820	72.02001	0
247	365220	72.02501	0
247	365523	72.03001	0
247	366093	72.03501	0
247	366481	72.04001	0
247	366743	72.04501	0
247	367069	72.05001	0
247	367396	72.05501	0
247	367694	72.06001	0
247	367695	72.06501	0
247	368158	73.00501	0
247	368484	73.01001	0
247	368488	73.01501	0
247	368872	73.021966042972	0
247	369408	73.026966042972	0
247	369711	73.031966042972	0
247	369712	73.036966042972	0
247	370109	73.045796115201	0
247	370522	73.050796115201	0
247	370523	73.055796115201	0
247	371254	73.077044146759	0
247	371580	73.082044146759	0
247	371842	73.087044146759	0
247	371843	73.092044146759	0
247	372161	73.100964172296	0
247	372162	73.105964172296	0
247	444567	670.00501	0
247	445013	670.01001	0
247	445313	670.01501	0
247	445754	670.02001	0
247	445755	670.02501	0
247	446053	670.046804078051	0
247	446054	670.051804078051	0
247	446493	671.00501	0
247	446873	671.01001	0
247	447118	671.01501	0
247	447738	671.02001	0
247	448056	671.02501	0
247	448057	671.03001	0
247	448518	672.00501	0
247	448913	672.01001	0
247	449170	672.01501	0
247	449679	672.02001	0
247	449978	672.02501	0
247	450068	672.03001	0
247	450402	672.036836116393	0
247	450867	672.041836116393	0
247	451511	672.046836116393	0
247	451512	672.051836116393	0
247	452078	672.071564180634	0
247	452466	672.076564180634	0
247	452467	672.081564180634	0
247	452930	673.00501	0
247	453256	673.01001	0
247	453575	673.01501	0
247	453877	673.02001	0
247	454275	673.02501	0
247	454828	673.03001	0
247	455366	673.03501	0
247	455860	673.04001	0
247	456593	673.04501	0
247	456594	673.05001	0
247	457238	673.073092139063	0
247	457239	673.078092139063	0
247	529786	1270.00501	0
247	530155	1270.01001	0
247	530533	1270.01501	0
247	530997	1270.02001	0
247	530998	1270.02501	0
247	531440	1271.00501	0
247	531752	1271.01001	0
247	532127	1271.01501	0
247	532729	1271.02001	0
247	532979	1271.02501	0
247	532980	1271.03001	0
247	533626	1272.00501	0
247	534063	1272.01001	0
247	534382	1272.01501	0
247	534684	1272.02001	0
247	535137	1272.02501	0
247	535144	1272.03001	0
247	535457	1272.036236087755	0
247	535458	1272.041236087755	0
247	536063	1272.052204077204	0
247	536458	1272.057204077204	0
247	537039	1272.062204077204	0
247	537369	1272.067204077204	0
247	537667	1272.072204077204	0
247	537668	1272.077204077204	0
247	538131	1273.00501	0
247	538457	1273.01001	0
247	538779	1273.01501	0
247	539147	1273.02001	0
247	539528	1273.02501	0
247	539681	1273.03001	0
247	540349	1273.0406761152	0
247	540672	1273.0456761152	0
247	541086	1273.0506761152	0
247	541416	1273.0556761152	0
247	541824	1273.0606761152	0
247	541825	1273.0656761152	0
247	542469	1273.089300172294	0
247	542470	1273.094300172294	0
247	614934	1870.00501	0
247	615374	1870.01001	0
247	615674	1870.01501	0
247	616118	1870.02001	0
247	616119	1870.02501	0
247	616417	1870.048404078051	0
247	616418	1870.053404078051	0
247	616857	1871.00501	0
247	617172	1871.01001	0
247	617548	1871.01501	0
247	618021	1871.02001	0
247	618175	1871.02501	0
247	618425	1871.030124081158	0
247	618426	1871.035124081158	0
247	618884	1872.00501	0
247	619211	1872.01001	0
247	619530	1872.01501	0
247	619832	1872.02001	0
247	620135	1872.02501	0
247	620437	1872.03001	0
247	620765	1872.03501	0
247	621088	1872.04001	0
247	621248	1872.04501	0
247	621748	1872.05001	0
247	621817	1872.05501	0
247	622401	1872.060932180634	0
247	622702	1872.065932180634	0
247	622703	1872.070932180634	0
247	623169	1873.00501	0
247	623560	1873.01001	0
247	623817	1873.01501	0
247	624339	1873.02001	0
247	624840	1873.02501	0
247	625234	1873.03001	0
247	625705	1873.03501	0
247	626481	1873.04001	0
247	626488	1873.04501	0
247	627167	1873.068300115201	0
247	627429	1873.073300115201	0
247	627430	1873.078300115201	0
247	699974	2470.00501	0
247	700278	2470.01001	0
247	700578	2470.01501	0