version 2
run AODVScenario_1f-28-20121119-11:13:37-2092
attr configname AODVScenario_1f
attr datetime 20121119-11:13:37
attr experiment AODVScenario_1f
attr inifile AODV.ini
attr iterationvars $numNodes=78
attr iterationvars2 "$numNodes=78, $repetition=0"
attr measurement $numNodes=78
attr network csma802154net
attr numNodes 78
attr processid 2092
attr repetition 0
attr replication #0
attr resultdir results
attr runnumber 28
attr seedset 28

vector 323  csma802154net.dataCentricNetworkMan  RREQPacketFrequency  ETV
vector 324  csma802154net.dataCentricNetworkMan  RERRPacketFrequency  ETV
vector 325  csma802154net.dataCentricNetworkMan  DiscoveryPacketFrequency  ETV
vector 326  csma802154net.dataCentricNetworkMan  RegisterPacketFrequency  ETV
vector 327  csma802154net.dataCentricNetworkMan  RReplyPacketFrequency  ETV
vector 328  csma802154net.dataCentricNetworkMan  AODVDataPacketFrequency  ETV
vector 335  csma802154net.dataCentricNetworkMan  pendingRegistrationVector  ETV
vector 334  csma802154net.dataCentricNetworkMan  pendingRREQVector  ETV
vector 332  csma802154net.dataCentricNetworkMan  PendingDataPacketsVector  ETV
vector 352  csma802154net.fixhost[16].udpApp  "End-to-end delay"  ETV
vector 320  csma802154net.dataCentricNetworkMan  dataPacketE2EDelay  ETV
vector 359  csma802154net.fixhost[23].udpApp  "End-to-end delay"  ETV
vector 360  csma802154net.fixhost[24].udpApp  "End-to-end delay"  ETV
vector 343  csma802154net.fixhost[7].udpApp  "End-to-end delay"  ETV
vector 347  csma802154net.fixhost[11].udpApp  "End-to-end delay"  ETV
vector 344  csma802154net.fixhost[8].udpApp  "End-to-end delay"  ETV
vector 339  csma802154net.fixhost[3].udpApp  "End-to-end delay"  ETV
vector 340  csma802154net.fixhost[4].udpApp  "End-to-end delay"  ETV
vector 341  csma802154net.fixhost[5].udpApp  "End-to-end delay"  ETV
vector 346  csma802154net.fixhost[10].udpApp  "End-to-end delay"  ETV
vector 349  csma802154net.fixhost[13].udpApp  "End-to-end delay"  ETV
vector 350  csma802154net.fixhost[14].udpApp  "End-to-end delay"  ETV
320	525764	70.008356015616	0.008356015616
320	526194	70.013116038564	0.013116038564
320	526613	70.017556063765	0.017556063765
320	529301	71.024452052385	0.024452052385
320	529706	71.027716107076	0.027716107076
320	530099	71.059756083739	0.059756083739
320	531120	72.008356024319	0.008356024319
320	531949	72.015636063134	0.015636063134
320	532748	72.030564083488	0.030564083488
320	533767	73.010276030445	0.010276030445
320	534187	73.01503605855	0.01503605855
320	534607	73.01883608436	0.01883608436
320	630955	670.008356015617	0.008356015617
320	631385	670.013116038565	0.013116038565
320	631804	670.016596063765	0.016596063765
320	634068	671.020116052385	0.020116052385
320	634883	671.023844083739	0.023844083739
320	635280	671.026436107077	0.026436107077
320	636302	672.010276024319	0.010276024319
320	637130	672.019156063134	0.019156063134
320	637928	672.026724083488	0.026724083488
320	638947	673.011236030445	0.011236030445
320	639367	673.01471605855	0.01471605855
320	639787	673.02011608436	0.02011608436
320	736135	1270.009636015617	0.009636015617
320	736565	1270.014716038565	0.014716038565
320	736984	1270.019156063766	0.019156063766
320	739252	1271.020684052385	0.020684052385
320	739645	1271.022636083739	0.022636083739
320	740469	1271.031804107077	0.031804107077
320	741491	1272.011556024318	0.011556024318
320	742726	1272.023916083487	0.023916083487
320	743124	1272.030532063132	0.030532063132
320	744139	1273.009636030445	0.009636030445
320	744560	1273.01343605855	0.01343605855
320	744980	1273.01691608436	0.01691608436
320	841406	1870.006756015616	0.006756015616
320	841836	1870.010236038564	0.010236038564
320	842255	1870.015636063765	0.015636063765
320	844100	1871.017556052385	0.017556052385
320	845343	1871.029212083739	0.029212083739
320	845935	1871.054452107076	0.054452107076
320	846956	1872.009636024319	0.009636024319
320	847785	1872.017556063134	0.017556063134
320	848583	1872.028644083487	0.028644083487
320	849601	1873.009636030444	0.009636030444
320	850023	1873.015036058548	0.015036058548
320	850442	1873.019476084358	0.019476084358
320	946790	2470.007716015617	0.007716015617
320	947220	2470.011836038565	0.011836038565
320	947639	2470.016596063766	0.016596063766
320	950065	2471.019116083738	0.019116083738
320	950880	2471.042444052384	0.042444052384
320	951708	2471.052212107075	0.052212107075
320	952729	2472.008356024319	0.008356024319
320	953965	2472.021036083487	0.021036083487
320	954364	2472.032132063134	0.032132063134
320	955379	2473.007396030445	0.007396030445
320	955800	2473.01119605855	0.01119605855
320	956219	2473.01467608436	0.01467608436
320	1052567	3070.007076015617	0.007076015617
320	1052997	3070.010876038565	0.010876038565
320	1053416	3070.016276063766	0.016276063766
320	1055447	3071.018836052383	0.018836052383
320	1056779	3071.052252083737	0.052252083737
320	1057282	3071.077492107076	0.077492107076
320	1058303	3072.008676024319	0.008676024319
320	1059132	3072.016596063133	0.016596063133
320	1059929	3072.024484083487	0.024484083487
320	1060947	3073.007716030445	0.007716030445
320	1061368	3073.01183605855	0.01183605855
320	1061788	3073.01531608436	0.01531608436
320	1158214	3670.008356015617	0.008356015617
320	1158644	3670.013756038565	0.013756038565
320	1159063	3670.018836063766	0.018836063766
320	1161753	3671.022604052385	0.022604052385
320	1162230	3671.024556083739	0.024556083739
320	1162734	3671.049724107077	0.049724107077
320	1163755	3672.007716024319	0.007716024319
320	1164584	3672.017236063133	0.017236063133
320	1165382	3672.025764083486	0.025764083486
320	1166400	3673.009316030444	0.009316030444
320	1166821	3673.013756058549	0.013756058549
320	1167241	3673.018196084359	0.018196084359
320	1263589	4270.008356015617	0.008356015617
320	1264019	4270.013116038564	0.013116038564
320	1264438	4270.017236063765	0.017236063765
320	1266283	4271.019156052385	0.019156052385
320	1267101	4271.030564083739	0.030564083739
320	1267925	4271.040372107076	0.040372107076
320	1268947	4272.011556024318	0.011556024318
320	1270192	4272.022604063133	0.022604063133
320	1270577	4272.028004083487	0.028004083487
320	1271595	4273.007716030445	0.007716030445
320	1272016	4273.01311605855	0.01311605855
320	1272436	4273.01723608436	0.01723608436
320	1368784	4870.007396015616	0.007396015616
320	1369214	4870.012796038564	0.012796038564
320	1369633	4870.016276063765	0.016276063765
320	1371901	4871.019404052385	0.019404052385
320	1372502	4871.025124083739	0.025124083739
320	1373096	4871.030204107077	0.030204107077
320	1374118	4872.012196024319	0.012196024319
320	1374946	4872.019156063134	0.019156063134
320	1375744	4872.028324083488	0.028324083488
320	1376762	4873.009636030445	0.009636030445
320	1377183	4873.01343605855	0.01343605855
320	1377603	4873.01819608436	0.01819608436
320	1474029	5470.008676015616	0.008676015616
320	1474459	5470.013436038564	0.013436038564
320	1474878	5470.017236063765	0.017236063765
320	1477146	5471.020684052385	0.020684052385
320	1478048	5471.026756107077	0.026756107077
320	1478938	5471.056980083738	0.056980083738
320	1479959	5472.009316024319	0.009316024319
320	1481195	5472.023596083488	0.023596083488
320	1481593	5472.029572063134	0.029572063134
320	1482608	5473.008996030444	0.008996030444
320	1483029	5473.013116058549	0.013116058549
320	1483449	5473.017876084359	0.017876084359
320	1579797	6070.008036015617	0.008036015617
320	1580227	6070.013436038565	0.013436038565
320	1580646	6070.018196063766	0.018196063766
320	1583328	6071.021676083739	0.021676083739
320	1583724	6071.023876107077	0.023876107077
320	1584123	6071.026692052383	0.026692052383
320	1585149	6072.007396024318	0.007396024318
320	1585978	6072.015316063133	0.015316063133
320	1586775	6072.024804083487	0.024804083487
320	1587794	6073.010596030445	0.010596030445
320	1588214	6073.01535605855	0.01535605855
320	1588634	6073.01947608436	0.01947608436
320	1684982	6670.008036015617	0.008036015617
320	1685412	6670.012476038564	0.012476038564
320	1685831	6670.017876063765	0.017876063765
320	1688093	6671.019476052385	0.019476052385
320	1689099	6671.028604107077	0.028604107077
320	1689892	6671.045924083739	0.045924083739
320	1690913	6672.009316024319	0.009316024319
320	1692159	6672.021964063134	0.021964063134
320	1692544	6672.025764083488	0.025764083488
320	1693562	6673.008996030444	0.008996030444
320	1693983	6673.013436058549	0.013436058549
320	1694403	6673.016916084359	0.016916084359
320	1790829	7270.008676015617	0.008676015617
320	1791259	7270.013436038565	0.013436038565
320	1791678	7270.018836063766	0.018836063766
320	1793709	7271.016916052384	0.016916052384
320	1794530	7271.045924083739	0.045924083739
320	1795354	7271.054132107077	0.054132107077
320	1796375	7272.008996024319	0.008996024319
320	1797617	7272.021324063134	0.021324063134
320	1798001	7272.024556083487	0.024556083487
320	1799019	7273.006756030445	0.006756030445
320	1799440	7273.01215605855	0.01215605855
320	1799860	7273.01627608436	0.01627608436
323	617	1.005	1
323	624	1.01	0
323	1619	1.019406460769	130
323	2955	1.024406460769	45
323	4780	1.029406460769	49
323	6958	1.034406460769	80
323	8606	1.039406460769	67
323	9648	1.044406460769	68
323	10700	1.049406460769	77
323	11661	1.054406460769	47
323	12838	1.059406460769	85
323	13920	1.064406460769	72
323	14277	1.069406460769	22
323	15076	1.074406460769	62
323	15854	1.079406460769	59
323	16114	1.084406460769	20
323	16635	1.089406460769	57
323	16923	1.094406460769	25
323	17225	1.099406460769	29
323	17570	1.104406460769	37
323	17571	1.109406460769	0
323	17886	1.121103685538	31
323	17887	1.126103685538	0
323	18222	1.141093831683	35
323	18223	1.146093831683	0
323	25097	43.505	1
323	26478	43.51	37
323	27583	43.515	0
323	28855	43.52	0
323	29781	43.525	0
323	30438	43.53	0
323	31636	43.53600816177	0
323	32316	43.54100816177	0
323	33189	43.54600816177	0
323	34256	43.55100816177	0
323	35190	43.55600816177	0
323	36486	43.563020637931	0
323	37409	43.568020637931	0
323	38332	43.573020637931	0
323	39948	43.582209436513	0
323	41131	43.587209436513	0
323	42130	43.59262067166	0
323	42770	43.59762067166	0
323	46584	43.619262018839	0
323	47570	43.624262018839	0
323	49876	43.6371574262	0
323	50820	43.6421574262	0
323	52642	43.652693005051	0
323	53635	43.657693005051	0
323	56100	43.669273633458	0
323	56912	43.674273633458	0
323	58515	43.686129845824	0
323	59516	43.691129845824	0
323	61252	43.70030546873	0
323	62115	43.70530546873	0
323	63075	43.711407289638	0
323	64130	43.716407289638	0
323	64722	43.721407289638	0
323	65832	43.726407289638	0
323	66819	43.731407289638	0
323	67853	43.738154147442	0
323	68742	43.743154147442	0
323	69431	43.748154147442	0
323	70688	43.753154147442	0
323	71357	43.758154147442	0
323	72180	43.763574732667	0
323	73295	43.768574732667	0
323	74106	43.773574732667	0
323	74823	43.778574732667	0
323	75717	43.789462406356	0
323	76651	43.794462406356	0
323	77291	43.799462406356	0
323	78306	43.807075480067	0
323	78768	43.812075480067	0
323	79699	43.818143253717	0
323	80524	43.823143253717	0
323	81875	43.83987430266	0
323	82600	43.84487430266	0
323	83322	43.84987430266	0
323	83803	43.858116289499	0
323	84381	43.863116289499	0
323	85097	43.868116289499	0
323	86005	43.874232447198	0
323	86643	43.879232447198	0
323	86649	43.884232447198	0
323	87212	43.891980317598	0
323	87682	43.896980317598	0
323	88244	43.901980317598	0
323	88930	43.906980317598	0
323	89395	43.911980317598	0
323	90071	43.916980317598	0
323	90082	43.921980317598	0
323	90471	43.928941018354	0
323	90472	43.933941018354	0
323	90869	43.967613450383	0
323	90870	43.972613450383	0
323	91034	44.505	1
323	91041	44.51	0
323	92410	44.518569332273	28
323	93425	44.523569332273	0
323	94673	44.53018601584	0
323	95569	44.53518601584	0
323	96039	44.54018601584	0
323	97544	44.550458994096	0
323	98473	44.555458994096	0
323	99134	44.560458994096	0
323	99619	44.565458994096	0
323	103245	44.590867853288	0
323	103797	44.595867853288	0
323	105484	44.608927064739	0
323	106313	44.613927064739	0
323	107192	44.619897971601	0
323	107929	44.624897971601	0
323	109688	44.636275332458	0
323	110353	44.641275332458	0
323	111105	44.646275332458	0
323	112193	44.652923094086	0
323	112850	44.657923094086	0
323	113489	44.662923094086	0
323	114042	44.668547024561	0
323	114665	44.673547024561	0
323	115608	44.680890043772	0
323	116333	44.685890043772	0
323	117799	44.695741311514	0
323	118543	44.700741311514	0
323	119005	44.705741311514	0
323	119652	44.710741311514	0
323	120778	44.718697757474	0
323	121781	44.723697757474	0
323	122259	44.728697757474	0
323	123194	44.733697757474	0
323	123759	44.738697757474	0
323	124695	44.743697757474	0
323	125446	44.748697757474	0
323	126106	44.753697757474	0
323	126841	44.758697757474	0
323	127700	44.765343769127	0
323	128172	44.770343769127	0
323	128686	44.775343769127	0
323	129328	44.780475875679	0
323	130061	44.785475875679	0
323	130569	44.793413684931	0
323	131387	44.798413684931	0
323	131966	44.803413684931	0
323	132528	44.808413684931	0
323	133281	44.813413684931	0
323	133661	44.818413684931	0
323	134059	44.823413684931	0
323	134604	44.828413684931	0
323	135250	44.833413684931	0
323	135903	44.838413684931	0
323	136278	44.843413684931	0
323	136662	44.848413684931	0
323	137192	44.853413684931	0
323	137284	44.858413684931	0
323	137561	44.864759885556	0
323	137562	44.869759885556	0
323	137926	44.882575324354	0
323	137927	44.887575324354	0
323	138091	45.505	1
323	138185	45.51	0
323	139654	45.515834560765	35
323	140903	45.520834560765	0
323	141769	45.525834560765	0
323	142973	45.531567673729	0
323	143674	45.536567673729	0
323	144598	45.541567673729	0
323	145816	45.546567673729	0
323	146758	45.551567673729	0
323	147485	45.556567673729	0
323	148592	45.561567673729	0
323	149205	45.566567673729	0
323	150324	45.573870286897	0
323	151281	45.578870286897	0
323	151953	45.583870286897	0
323	152719	45.588870286897	0
323	153744	45.593870286897	0
323	154874	45.598870286897	0
323	155813	45.603870286897	0
323	156377	45.608870286897	0
323	157166	45.61537767192	0
323	157655	45.62037767192	0
323	159880	45.636442515471	0
323	160523	45.641442515471	0
323	162576	45.65389331607	0
323	163062	45.65889331607	0
323	164762	45.671338543453	0
323	165623	45.676338543453	0
323	166596	45.681429427254	0
323	167638	45.686429427254	0
323	168180	45.691429427254	0
323	169244	45.696715034893	0
323	169813	45.701715034893	0
323	170384	45.706715034893	0
323	171328	45.712352466469	0
323	172078	45.717352466469	0
323	173033	45.722352466469	0
323	173810	45.727352466469	0
323	174609	45.732352466469	0
323	175300	45.739018873652	0
323	176152	45.744018873652	0
323	176631	45.749018873652	0
323	177582	45.754018873652	0
323	178383	45.759018873652	0
323	179687	45.7694819976	0
323	180263	45.7744819976	0
323	180939	45.7794819976	0
323	182409	45.78671732329	0
323	183157	45.79171732329	0
323	183729	45.79671732329	0
323	184193	45.80171732329	0
323	184956	45.80671732329	0
323	185728	45.81171732329	0
323	186308	45.81671732329	0
323	186790	45.82171732329	0
323	187586	45.82671732329	0
323	188126	45.83171732329	0
323	188850	45.839618953722	0
323	188855	45.844618953722	0
323	189752	45.852054975953	0
323	190123	45.857054975953	0
323	191337	45.865606984257	0
323	191732	45.870606984257	0
323	192676	45.879685248745	0
323	193063	45.884685248745	0
323	193456	45.889685248745	0
323	193457	45.894685248745	0
323	193459	45.90376215394	0
323	193460	45.90876215394	0
323	193624	46.505	1
323	193637	46.51	0
323	195072	46.516951693852	25
323	195952	46.521951693852	0
323	197018	46.526951693852	0
323	197782	46.531951693852	0
323	198580	46.536951693852	0
323	199304	46.541951693852	0
323	199901	46.547795152778	0
323	200615	46.552795152778	0
323	201198	46.557795152778	0
323	202841	46.567876163658	0
323	203452	46.572876163658	0
323	204495	46.580933966258	0
323	204965	46.585933966258	0
323	206464	46.599133978469	0
323	207235	46.604133978469	0
323	208091	46.609204019202	0
323	208779	46.614204019202	0
323	209758	46.619204019202	0
323	210309	46.624204019202	0
323	212820	46.642791068921	0
323	213301	46.647791068921	0
323	214123	46.6537607988	0
323	214777	46.6587607988	0
323	215549	46.6637607988	0
323	216132	46.6687607988	0
323	216701	46.674103564743	0
323	217265	46.679103564743	0
323	217838	46.684103564743	0
323	218323	46.689103564743	0
323	218997	46.694103564743	0
323	219478	46.699103564743	0
323	220843	46.711187167946	0
323	221994	46.716187167946	0
323	222657	46.721187167946	0
323	223004	46.726187167946	0
323	223410	46.731260179322	0
323	224306	46.736260179322	0
323	225002	46.741260179322	0
323	225687	46.746260179322	0
323	226318	46.751260179322	0
323	226979	46.756260179322	0
323	227371	46.761260179322	0
323	228145	46.774798635963	0
323	228602	46.779798635963	0
323	228884	46.784798635963	0
323	228885	46.789798635963	0
323	229662	46.803496040856	0
323	229663	46.808496040856	0
323	230050	46.833014995034	0
323	230051	46.838014995034	0
323	230215	47.505	1
323	230309	47.51	0
323	231531	47.515017827708	21
323	232502	47.520017827708	0
323	233582	47.525017827708	0
323	234342	47.530017827708	0
323	235485	47.535017827708	0
323	236077	47.540017827708	0
323	236729	47.545017827708	0
323	237681	47.550017827708	0
323	238052	47.555017827708	0
323	239227	47.569269727796	0
323	240066	47.574269727796	0
323	241002	47.580829278113	0
323	241372	47.585829278113	0
323	241936	47.590829278113	0
323	242592	47.595829278113	0
323	243173	47.600829278113	0
323	243653	47.605829278113	0
323	244326	47.610829278113	0
323	245157	47.615829278113	0
323	246676	47.626922659349	0
323	247240	47.631922659349	0
323	248365	47.644715633214	0
323	248744	47.649715633214	0
323	249144	47.654715633214	0
323	249935	47.659715633214	0
323	250232	47.664715633214	0
323	250320	47.669715633214	0
323	251004	47.674953026596	0
323	251392	47.679953026596	0
323	251763	47.684953026596	0
323	252166	47.696905085449	0
323	252170	47.701905085449	0
323	253134	47.71001959824	0
323	253519	47.71501959824	0
323	253926	47.72001959824	0
323	254330	47.72786086903	0
323	254610	47.73286086903	0
323	255097	47.741773301254	0
323	255098	47.746773301254	0
323	255504	47.758956010984	0
323	255595	47.763956010984	0
323	256300	47.812587261222	0
323	256301	47.817587261222	0
323	256687	47.832420037965	0
323	256688	47.837420037965	0
323	257091	47.852285315118	0
323	257092	47.857285315118	0
323	257265	48.505	1
323	257715	48.51	22
323	258699	48.515	0
323	259777	48.52	0
323	260475	48.525	0
323	260979	48.53	0
323	261925	48.537444466233	0
323	262607	48.542444466233	0
323	263282	48.547444466233	0
323	263906	48.552444466233	0
323	264482	48.557444466233	0
323	264976	48.562444466233	0
323	265829	48.569185735144	0
323	266418	48.574185735144	0
323	268167	48.587010238786	0
323	268638	48.592010238786	0
323	269514	48.597976788997	0
323	269988	48.602976788997	0
323	270580	48.607976788997	0
323	271281	48.612976788997	0
323	271856	48.617976788997	0
323	272847	48.625220204226	0
323	273245	48.630220204226	0
323	273736	48.635220204226	0
323	274580	48.640220204226	0
323	275084	48.645220204226	0
323	275486	48.650220204226	0
323	276219	48.655220204226	0
323	276598	48.660220204226	0
323	276982	48.665220204226	0
323	277546	48.670848266187	0
323	277967	48.675848266187	0
323	278273	48.680848266187	0
323	279098	48.685848266187	0
323	279866	48.692395548888	0
323	279977	48.697395548888	0
323	281001	48.708078122226	0
323	281404	48.713078122226	0
323	281971	48.718078122226	0
323	282173	48.723078122226	0
323	282487	48.728288268039	0
323	283250	48.733288268039	0
323	283827	48.738288268039	0
323	284287	48.743288268039	0
323	285353	48.751940717131	0
323	285735	48.756940717131	0
323	286499	48.761940717131	0
323	287042	48.766940717131	0
323	288630	48.820494384576	0
323	288949	48.825494384576	0
323	288950	48.830494384576	0
323	289533	48.844732784966	0
323	289534	48.849732784966	0
323	289947	48.867113562	0
323	290357	48.872113562	0
323	290564	49.505	1
323	290929	49.51	21
323	291829	49.515	0
323	292608	49.52	0
323	293547	49.525168438809	0
323	294177	49.530168438809	0
323	294971	49.535647502299	0
323	295675	49.540647502299	0
323	296703	49.545647502299	0
323	297480	49.550647502299	0
323	298186	49.555647502299	0
323	298738	49.560647502299	0
323	299717	49.566715472022	0
323	300398	49.571715472022	0
323	301309	49.576715472022	0
323	301713	49.581715472022	0
323	302430	49.586715472022	0
323	303190	49.591715472022	0
323	303471	49.596715472022	0
323	304276	49.601765282431	0
323	304871	49.606765282431	0
323	305436	49.613091057944	0
323	306246	49.618091057944	0
323	306432	49.623091057944	0
323	306902	49.634639015264	0
323	307589	49.639639015264	0
323	308055	49.644639015264	0
323	308913	49.651245250076	0
323	308917	49.656245250076	0
323	309389	49.663306175409	0
323	309999	49.668306175409	0
323	310647	49.673306175409	0
323	311109	49.678306175409	0
323	311403	49.683306175409	0
323	311407	49.688306175409	0
323	312176	49.695618903767	0
323	312177	49.700618903767	0
323	312637	49.709462316899	0
323	312928	49.714462316899	0
323	312929	49.719462316899	0
323	313744	49.745569124693	0
323	313745	49.750569124693	0
323	314140	49.779642924755	0
323	314141	49.784642924755	0
323	314333	50.505	1
323	314340	50.51	0
323	315289	50.518736031015	16
323	316181	50.523736031015	0
323	317026	50.528736031015	0
323	317456	50.533736031015	0
323	318418	50.538736031015	0
323	319402	50.543736031015	0
323	320112	50.548736031015	0
323	320789	50.553736031015	0
323	321311	50.559285338096	0
323	321527	50.564285338096	0
323	321990	50.569285338096	0
323	322369	50.574285338096	0
323	322958	50.579285338096	0
323	323878	50.584285338096	0
323	324361	50.589285338096	0
323	327181	50.616723566643	0
323	327837	50.621723566643	0
323	328406	50.626723566643	0
323	328977	50.631723566643	0
323	329155	50.636723566643	0
323	329947	50.642942784645	0
323	330355	50.647942784645	0
323	330771	50.652942784645	0
323	331341	50.657942784645	0
323	331440	50.662942784645	0
323	331936	50.677560190127	0
323	332349	50.682560190127	0
323	333020	50.687560190127	0
323	333403	50.692560190127	0
323	333404	50.697560190127	0
323	334154	50.722511901016	0
323	334155	50.727511901016	0
323	334245	50.736271286578	0
323	334645	50.741271286578	0
323	334974	50.746271286578	0
323	334975	50.751271286578	0
323	335374	50.784455931144	0
323	335375	50.789455931144	0
323	335580	51.505	1
323	335846	51.51	20
323	336796	51.515	0
323	337682	51.52	0
323	338802	51.525315276005	0
323	339316	51.530315276005	0
323	340105	51.535315276005	0
323	340334	51.540315276005	0
323	341073	51.545315276005	0
323	341849	51.550315276005	0
323	342716	51.557741361987	0
323	343496	51.562741361987	0
323	344250	51.567741361987	0
323	345969	51.581100114167	0
323	346347	51.586100114167	0
323	347273	51.59348145313	0
323	347873	51.59848145313	0
323	348458	51.60348145313	0
323	349175	51.60848145313	0
323	349751	51.61348145313	0
323	350544	51.61848145313	0
323	351404	51.62348145313	0
323	352377	51.635754058927	0
323	353247	51.640754058927	0
323	353631	51.645754058927	0
323	354611	51.652584303028	0
323	355284	51.657584303028	0
323	355799	51.662584303028	0
323	356472	51.667584303028	0
323	356967	51.672584303028	0
323	357844	51.67951660893	0
323	357940	51.68451660893	0
323	359968	51.701104550811	0
323	360669	51.706104550811	0
323	361426	51.711104550811	0
323	361848	51.716104550811	0
323	362318	51.721104550811	0
323	362991	51.726104550811	0
323	363082	51.731104550811	0
323	363394	51.737705465091	0
323	363395	51.742705465091	0
323	364203	51.754892855544	0
323	364207	51.759892855544	0
323	364984	51.770400747301	0
323	364985	51.775400747301	0
323	365180	52.505	1
323	365603	52.51	29
323	366978	52.515	0
323	368112	52.52	0
323	369209	52.525557884576	0
323	370044	52.530557884576	0
323	371247	52.538970383012	0
323	372369	52.543970383012	0
323	373329	52.550550835586	0
323	373854	52.555550835586	0
323	374648	52.560550835586	0
323	375582	52.565550835586	0
323	376767	52.570550835586	0
323	377657	52.575550835586	0
323	378511	52.580550835586	0
323	379303	52.585550835586	0
323	380042	52.590550835586	0
323	381716	52.600068872492	0
323	382610	52.605068872492	0
323	383186	52.610068872492	0
323	384256	52.615068872492	0
323	385027	52.620068872492	0
323	386825	52.630337471611	0
323	387516	52.635337471611	0
323	390597	52.656497734841	0
323	391348	52.661497734841	0
323	392057	52.666497734841	0
323	392905	52.671497734841	0
323	397837	52.705696879242	0
323	398524	52.710696879242	0
323	399422	52.716356645283	0
323	399817	52.721356645283	0
323	401465	52.729202282444	0
323	402460	52.734202282444	0
323	403178	52.739202282444	0
323	404797	52.749988427051	0
323	405777	52.754988427051	0
323	406560	52.759988427051	0
323	408121	52.768308900352	0
323	408671	52.773308900352	0
323	409349	52.778308900352	0
323	410384	52.784909687763	0
323	411015	52.789909687763	0
323	411210	52.794909687763	0
323	411577	52.800867600186	0
323	412172	52.805867600186	0
323	412914	52.810867600186	0
323	413668	52.815867600186	0
323	414393	52.824403868932	0
323	415060	52.829403868932	0
323	415644	52.834403868932	0
323	416227	52.839403868932	0
323	416540	52.844403868932	0
323	416929	52.849403868932	0
323	417411	52.856613709046	0
323	417918	52.861613709046	0
323	418600	52.866613709046	0
323	419932	52.88741067553	0
323	420332	52.89241067553	0
323	420333	52.89741067553	0
323	420723	52.913062437419	0
323	420727	52.918062437419	0
323	421136	52.926002419612	0
323	421137	52.931002419612	0
323	421322	53.505	1
323	421332	53.51	0
323	422832	53.517578390596	29
323	424113	53.522578390596	0
323	425342	53.527578390596	0
323	426399	53.532578390596	0
323	427189	53.537578390596	0
323	428315	53.544085304824	0
323	429195	53.549085304824	0
323	429973	53.554085304824	0
323	430504	53.559085304824	0
323	431434	53.564085304824	0
323	432389	53.569085304824	0
323	433307	53.576085325441	0
323	434190	53.581085325441	0
323	434785	53.586085325441	0
323	435581	53.591085325441	0
323	436932	53.597813340291	0
323	437746	53.602813340291	0
323	438338	53.607813340291	0
323	439132	53.612813340291	0
323	441601	53.624389741301	0
323	442213	53.629389741301	0
323	442808	53.634389741301	0
323	444425	53.643055383192	0
323	444929	53.648055383192	0
323	446485	53.65876427863	0
323	446980	53.66376427863	0
323	447682	53.66876427863	0
323	448654	53.67376427863	0
323	451064	53.69254868389	0
323	452021	53.69754868389	0
323	452688	53.70254868389	0
323	453188	53.708648368647	0
323	453908	53.713648368647	0
323	454407	53.718648368647	0
323	455925	53.728005883013	0
323	456517	53.733005883013	0
323	457893	53.744528218612	0
323	458670	53.749528218612	0
323	459297	53.754528218612	0
323	460279	53.759528218612	0
323	460674	53.764528218612	0
323	461159	53.771801855183	0
323	461679	53.776801855183	0
323	462234	53.781801855183	0
323	463498	53.790223939904	0
323	463905	53.795223939904	0
323	464395	53.80162810114	0
323	465305	53.80662810114	0
323	465831	53.81162810114	0
323	466473	53.81662810114	0
323	467266	53.828247965919	0
323	467993	53.833247965919	0
323	468511	53.838247965919	0
323	469231	53.843247965919	0
323	469993	53.850176232768	0
323	470664	53.855176232768	0
323	471074	53.860176232768	0
323	471561	53.865877782367	0
323	471868	53.870877782367	0
323	472700	53.876101404174	0
323	473013	53.881101404174	0
323	473433	53.886101404174	0
323	473436	53.89241207364	0
323	473437	53.89741207364	0
323	473840	53.921563974258	0
323	473841	53.926563974258	0
323	474120	54.505	1
323	475275	54.51	27
323	476587	54.515	0
323	477388	54.52	0
323	478131	54.525547371898	0
323	478435	54.530547371898	0
323	479332	54.535547371898	0
323	480081	54.540547371898	0
323	480681	54.545547371898	0
323	481388	54.550547371898	0
323	481978	54.555547371898	0
323	483218	54.566562104884	0
323	483929	54.571562104884	0
323	484344	54.576562104884	0
323	485151	54.581562104884	0
323	486303	54.588791622316	0
323	487170	54.593791622316	0
323	488212	54.598791622316	0
323	488734	54.603791622316	0
323	489912	54.611201280682	0
323	490569	54.616201280682	0
323	493954	54.64268394051	0
323	494554	54.64768394051	0
323	495177	54.653845068927	0
323	496096	54.658845068927	0
323	497097	54.663845068927	0
323	497787	54.668845068927	0
323	498380	54.673845068927	0
323	499586	54.683398989686	0
323	500291	54.688398989686	0
323	504745	54.717368497358	0
323	505134	54.722368497358	0
323	505572	54.727615028931	0
323	506088	54.732615028931	0
323	507089	54.740207540081	0
323	508151	54.745207540081	0
323	509100	54.750207540081	0
323	509926	54.755207540081	0
323	510647	54.760207540081	0
323	511363	54.765207540081	0
323	512196	54.770207540081	0
323	513597	54.779703938125	0
323	514313	54.784703938125	0
323	515020	54.789703938125	0
323	516296	54.79704249402	0
323	516723	54.80204249402	0
323	517026	54.80704249402	0
323	517596	54.81204249402	0
323	518095	54.81704249402	0
323	518715	54.827789489576	0
323	518720	54.832789489576	0
323	519412	54.8408226034	0
323	519744	54.8458226034	0
323	520338	54.8508226034	0
323	520339	54.8558226034	0
323	521963	54.908471561414	0
323	521967	54.913471561414	0
323	522369	54.921226583843	0
323	522370	54.926226583843	0
323	525544	70.00501	0
323	525974	70.01001	0
323	526396	70.01501	0
323	526820	70.02001	0
323	526821	70.02501	0
323	527180	71.00501	0
323	527695	71.01001	0
323	528247	71.01501	0
323	528670	71.02001	0
323	529495	71.02501	0
323	529898	71.03001	0
323	529899	71.03501	0
323	530291	71.064756083739	0
323	530292	71.069756083739	0
323	530900	72.00501	0
323	531318	72.01001	0
323	531829	72.01501	0
323	532224	72.02001	0
323	532550	72.02501	0
323	532638	72.03001	0
323	532939	72.035564083488	0
323	532940	72.040564083488	0
323	533546	73.00501	0
323	533634	73.01001	0
323	534273	73.015276030445	0
323	534804	73.020276030445	0
323	534805	73.025276030445	0
323	630735	670.00501	0
323	631165	670.01001	0
323	631587	670.01501	0
323	632011	670.02001	0
323	632012	670.02501	0
323	632575	671.00501	0
323	633018	671.01001	0
323	633441	671.01501	0
323	633948	671.02001	0
323	635075	671.02501	0
323	635472	671.03001	0
323	635473	671.03501	0
323	635867	672.00501	0
323	636169	672.01001	0
323	636919	672.015276024319	0
323	637318	672.020276024319	0
323	637734	672.025276024319	0
323	638119	672.030276024319	0
323	638120	672.035276024319	0
323	638726	673.00501	0
323	638733	673.01001	0
323	639567	673.016236030445	0
323	639984	673.021236030445	0