version 2
run AODVScenario_1f-65-20121119-16:29:19-472
attr configname AODVScenario_1f
attr datetime 20121119-16:29:19
attr experiment AODVScenario_1f
attr inifile AODV.ini
attr iterationvars $numNodes=115
attr iterationvars2 "$numNodes=115, $repetition=0"
attr measurement $numNodes=115
attr network csma802154net
attr numNodes 115
attr processid 472
attr repetition 0
attr replication #0
attr resultdir results
attr runnumber 65
attr seedset 65

vector 471  csma802154net.dataCentricNetworkMan  RREQPacketFrequency  ETV
vector 472  csma802154net.dataCentricNetworkMan  RERRPacketFrequency  ETV
vector 473  csma802154net.dataCentricNetworkMan  DiscoveryPacketFrequency  ETV
vector 474  csma802154net.dataCentricNetworkMan  RegisterPacketFrequency  ETV
vector 475  csma802154net.dataCentricNetworkMan  RReplyPacketFrequency  ETV
vector 476  csma802154net.dataCentricNetworkMan  AODVDataPacketFrequency  ETV
vector 483  csma802154net.dataCentricNetworkMan  pendingRegistrationVector  ETV
vector 482  csma802154net.dataCentricNetworkMan  pendingRREQVector  ETV
vector 480  csma802154net.dataCentricNetworkMan  PendingDataPacketsVector  ETV
vector 491  csma802154net.fixhost[7].udpApp  "End-to-end delay"  ETV
vector 468  csma802154net.dataCentricNetworkMan  dataPacketE2EDelay  ETV
vector 504  csma802154net.fixhost[20].udpApp  "End-to-end delay"  ETV
vector 496  csma802154net.fixhost[12].udpApp  "End-to-end delay"  ETV
vector 485  csma802154net.fixhost[1].udpApp  "End-to-end delay"  ETV
vector 495  csma802154net.fixhost[11].udpApp  "End-to-end delay"  ETV
vector 486  csma802154net.fixhost[2].udpApp  "End-to-end delay"  ETV
vector 492  csma802154net.fixhost[8].udpApp  "End-to-end delay"  ETV
vector 489  csma802154net.fixhost[5].udpApp  "End-to-end delay"  ETV
vector 493  csma802154net.fixhost[9].udpApp  "End-to-end delay"  ETV
468	1329285	70.013116036416	0.013116036416
468	1330400	70.022636074628	0.022636074628
468	1334005	71.0299560742	0.0299560742
468	1338254	72.057404080167	0.057404080167
468	1340601	72.069764154138	0.069764154138
468	1341184	72.114604119053	0.114604119053
468	1347473	73.040292108098	0.040292108098
468	1348074	73.046444105877	0.046444105877
468	1350396	73.07669216741	0.07669216741
468	1492900	670.011196036416	0.011196036416
468	1494015	670.021356074629	0.021356074629
468	1497620	671.0273960742	0.0273960742
468	1502417	672.032444080167	0.032444080167
468	1503610	672.042884148068	0.042884148068
468	1504784	672.048284177657	0.048284177657
468	1510482	673.034676105878	0.034676105878
468	1512453	673.0620521081	0.0620521081
468	1514208	673.091380139997	0.091380139997
468	1656713	1270.015036036415	0.015036036415
468	1657827	1270.024876074628	0.024876074628
468	1661432	1271.0257960742	0.0257960742
468	1666499	1272.033076119053	0.033076119053
468	1668805	1272.062084154138	0.062084154138
468	1669392	1272.069988080166	0.069988080166
468	1674763	1273.035636108099	0.035636108099
468	1677402	1273.066212105877	0.066212105877
468	1679125	1273.093868139997	0.093868139997
468	1821744	1870.010876036416	0.010876036416
468	1822859	1870.021356074629	0.021356074629
468	1826463	1871.023556074199	0.023556074199
468	1831531	1872.036276119052	0.036276119052
468	1833836	1872.063364154137	0.063364154137
468	1834419	1872.065900080166	0.065900080166
468	1839545	1873.035956105877	0.035956105877
468	1841829	1873.064324137116	0.064324137116
468	1843030	1873.072284167411	0.072284167411
468	1985534	2470.011516036416	0.011516036416
468	1986650	2470.027436074629	0.027436074629
468	1990255	2471.0293160742	0.0293160742
468	1993941	2472.028676080167	0.028676080167
468	1995811	2472.042924119053	0.042924119053
468	1997687	2472.076020154138	0.076020154138
468	2003110	2473.033396105877	0.033396105877
468	2004289	2473.0410041081	0.0410041081
468	2006034	2473.050172139997	0.050172139997
468	2148539	3070.017916036416	0.017916036416
468	2149654	3070.028076074628	0.028076074628
468	2153258	3071.024836074199	0.024836074199
468	2157502	3072.027004080166	0.027004080166
468	2158927	3072.033716119052	0.033716119052
468	2160674	3072.061764154137	0.061764154137
468	2165747	3073.031156108099	0.031156108099
468	2169951	3073.080292105877	0.080292105877
468	2170525	3073.084412139996	0.084412139996
468	2313144	3670.011516036416	0.011516036416
468	2314259	3670.022636074628	0.022636074628
468	2317864	3671.0257960742	0.0257960742
468	2322659	3672.031484080166	0.031484080166
468	2324406	3672.041036148068	0.041036148068
468	2325000	3672.044516177657	0.044516177657
468	2331575	3673.037164105876	0.037164105876
468	2332748	3673.048004137114	0.048004137114
468	2333949	3673.056284167409	0.056284167409
468	2476453	4270.011836036416	0.011836036416
468	2477568	4270.023596074629	0.023596074629
468	2481173	4271.027076074198	0.027076074198
468	2484862	4272.027396080165	0.027396080165
468	2486858	4272.037484119048	0.037484119048
468	2488605	4272.072500154134	0.072500154134
468	2493724	4273.034356105875	0.034356105875
468	2495579	4273.061412108098	0.061412108098
468	2497464	4273.096108139996	0.096108139996
468	2639968	4870.012796036416	0.012796036416
468	2641083	4870.020396074629	0.020396074629
468	2644687	4871.0235560742	0.0235560742
468	2648372	4872.023876080167	0.023876080167
468	2651284	4872.045444154137	0.045444154137
468	2651866	4872.053020119051	0.053020119051
468	2657822	4873.035244105877	0.035244105877
468	2659807	4873.065212137115	0.065212137115
468	2661012	4873.093260167411	0.093260167411
468	2803631	5470.013116036415	0.013116036415
468	2804746	5470.021996074628	0.021996074628
468	2808350	5471.024516074199	0.024516074199
468	2812597	5472.033084080167	0.033084080167
468	2814345	5472.043564119053	0.043564119053
468	2815535	5472.051132154138	0.051132154138
468	2820643	5473.040116105878	0.040116105878
468	2822613	5473.0618041081	0.0618041081
468	2824368	5473.090492139997	0.090492139997
468	2966872	6070.011516036416	0.011516036416
468	2967987	6070.023276074628	0.023276074628
468	2971592	6071.0264360742	0.0264360742
468	2976391	6072.032372080165	0.032372080165
468	2977584	6072.040396148067	0.040396148067
468	2978776	6072.049564177656	0.049564177656
468	2985041	6073.040612105878	0.040612105878
468	2986821	6073.072500137115	0.072500137115
468	2987424	6073.077580167411	0.077580167411
468	3129928	6670.012796036416	0.012796036416
468	3131044	6670.026476074629	0.026476074629
468	3134649	6671.0264360742	0.0264360742
468	3138572	6672.028036080167	0.028036080167
468	3140576	6672.061804119053	0.061804119053
468	3142323	6672.093620154138	0.093620154138
468	3147528	6673.037556108099	0.037556108099
468	3150007	6673.063652105878	0.063652105878
468	3151172	6673.070012139998	0.070012139998
468	3293791	7270.013756036416	0.013756036416
468	3294906	7270.022316074629	0.022316074629
468	3298510	7271.0248360742	0.0248360742
468	3302874	7272.028284080165	0.028284080165
468	3304182	7272.03684411905	0.03684411905
468	3305930	7272.064004154136	0.064004154136
468	3311350	7273.033076105878	0.033076105878
468	3312772	7273.0390841081	0.0390841081
468	3315121	7273.068732139998	0.068732139998
471	1043	1.005	1
471	1240	1.01	24
471	1979	1.015	55
471	3220	1.02	77
471	5410	1.025	127
471	8734	1.03	72
471	12339	1.035	43
471	14622	1.04	89
471	16940	1.045	82
471	19520	1.05	87
471	21626	1.055	77
471	22954	1.06	94
471	24595	1.065	128
471	26020	1.07	85
471	26954	1.075	63
471	28155	1.08	126
471	29255	1.085	61
471	30528	1.09	104
471	31973	1.095	119
471	33278	1.1	119
471	34265	1.105	99
471	34962	1.11	67
471	35597	1.115	53
471	36017	1.12	36
471	36693	1.125	40
471	37451	1.13	82
471	37896	1.135	52
471	38764	1.14	85
471	40307	1.145	113
471	42411	1.15	76
471	43929	1.155	74
471	45161	1.16	97
471	46609	1.165	116
471	48160	1.17	141
471	49506	1.175	75
471	51163	1.18	137
471	52429	1.185	89
471	52678	1.19	0
471	53667	1.195072678559	106
471	54131	1.200072678559	46
471	54132	1.205072678559	0
471	55143	1.214698281976	108
471	55144	1.219698281976	0
471	55703	1.233073843489	65
471	56127	1.238073843489	38
471	56940	1.243073843489	33
471	57389	1.248073843489	50
471	57709	1.253073843489	42
471	57710	1.258073843489	0
471	58134	1.269614079637	38
471	58135	1.274614079637	0
471	59152	1.283167451272	110
471	59277	1.288167451272	0
471	59702	1.294044360264	63
471	59703	1.299044360264	0
471	60142	1.325608196274	41
471	60143	1.330608196274	0
471	70143	43.505	1
471	70150	43.51	0
471	71378	43.518481785639	13
471	72280	43.523481785639	0
471	73184	43.528481785639	0
471	73824	43.533481785639	0
471	74240	43.538481785639	0
471	75135	43.543481785639	0
471	75908	43.549112669432	0
471	76798	43.554112669432	0
471	77685	43.559112669432	0
471	78095	43.564112669432	0
471	79217	43.569112669432	0
471	80489	43.57648511473	0
471	81422	43.58148511473	0
471	81952	43.58648511473	0
471	82597	43.59148511473	0
471	83352	43.59648511473	0
471	83734	43.602337966403	0
471	84124	43.607337966403	0
471	85048	43.612337966403	0
471	85049	43.617337966403	0
471	86566	43.638678432946	0
471	86570	43.643678432946	0
471	87070	43.650650023569	0
471	87195	43.655650023569	0
471	88081	43.661371972586	0
471	88206	43.666371972586	0
471	88591	43.672435985465	0
471	88592	43.677435985465	0
471	89098	43.691550453628	0
471	89105	43.696550453628	0
471	89601	43.703502447856	0
471	89602	43.708502447856	0
471	89840	44.505	1
471	89853	44.51	0
471	92294	44.51698333393	51
471	95705	44.52198333393	0
471	97566	44.52698333393	0
471	98898	44.53198333393	0
471	100977	44.541308289272	0
471	103275	44.546308289272	0
471	104819	44.551308289272	0
471	106305	44.556308289272	0
471	107549	44.561308289272	0
471	108808	44.566308289272	0
471	110216	44.572444064177	0
471	111854	44.577444064177	0
471	112965	44.582444064177	0
471	116949	44.596201266377	0
471	118825	44.601201266377	0
471	120318	44.606201266377	0
471	122096	44.612584878558	0
471	123246	44.617584878558	0
471	124630	44.622584878558	0
471	126559	44.627601452297	0
471	128296	44.632601452297	0
471	129655	44.637601452297	0
471	132192	44.650009278546	0
471	133299	44.655009278546	0
471	138374	44.673350699555	0
471	139747	44.678350699555	0
471	140950	44.683350699555	0
471	142275	44.688390562437	0
471	143399	44.693390562437	0
471	145161	44.698390562437	0
471	147281	44.706244708692	0
471	148488	44.711244708692	0
471	149330	44.716244708692	0
471	150475	44.721244708692	0
471	151724	44.726244708692	0
471	153314	44.731244708692	0
471	155381	44.743754367946	0
471	157102	44.748754367946	0
471	158645	44.753754367946	0
471	160495	44.758754367946	0
471	161421	44.763754367946	0
471	163999	44.777290413536	0
471	165369	44.782290413536	0
471	166575	44.787290413536	0
471	167959	44.792290413536	0
471	169339	44.797290413536	0
471	170852	44.802290413536	0
471	172712	44.807290413536	0
471	173795	44.812290413536	0
471	176544	44.823517731174	0
471	177647	44.828517731174	0
471	179694	44.835818145838	0
471	180806	44.840818145838	0
471	182136	44.845818145838	0
471	185944	44.86162747066	0
471	187190	44.86662747066	0
471	188414	44.872648397908	0
471	189651	44.877648397908	0
471	190316	44.882648397908	0
471	191927	44.890421742086	0
471	192888	44.895421742086	0
471	194413	44.900717046911	0
471	195765	44.905717046911	0
471	197490	44.915275570399	0
471	198499	44.920275570399	0
471	199741	44.925275570399	0
471	200971	44.930275570399	0
471	202387	44.936303855182	0
471	203220	44.941303855182	0
471	204227	44.946303855182	0
471	205220	44.951303855182	0
471	206172	44.956303855182	0
471	206915	44.961303855182	0
471	207500	44.968957920045	0
471	208190	44.973957920045	0
471	208996	44.978957920045	0
471	209749	44.983957920045	0
471	210158	44.988957920045	0
471	210608	44.995622509931	0
471	211541	45.000622509931	0
471	212249	45.005622509931	0
471	212250	45.010622509931	0
471	212948	45.026290859404	0
471	213375	45.031290859404	0
471	213956	45.036290859404	0
471	214517	45.041290859404	0
471	214518	45.046290859404	0
471	214525	45.505	1
471	214656	45.51	0
471	216738	45.515601382194	45
471	218232	45.520601382194	0
471	220101	45.525601382194	0
471	221136	45.530601382194	0
471	223001	45.535758487564	0
471	224660	45.540758487564	0
471	225939	45.545758487564	0
471	227844	45.55342795311	0
471	229072	45.55842795311	0
471	230721	45.56342795311	0
471	232160	45.56842795311	0
471	233523	45.57342795311	0
471	234776	45.579166541041	0
471	236581	45.584166541041	0
471	238020	45.589166541041	0
471	239805	45.595859127113	0
471	240794	45.600859127113	0
471	242151	45.605859127113	0
471	243516	45.610859127113	0
471	244791	45.615859127113	0
471	247281	45.624979021513	0
471	248367	45.629979021513	0
471	249209	45.634979021513	0
471	250744	45.642457460498	0
471	251870	45.647457460498	0
471	253127	45.653004289454	0
471	254247	45.658004289454	0
471	256023	45.664012966871	0
471	256888	45.669012966871	0
471	258780	45.674278159037	0
471	259906	45.679278159037	0
471	261257	45.684278159037	0
471	262802	45.689278159037	0
471	263839	45.694278159037	0
471	265785	45.700156077013	0
471	266786	45.705156077013	0
471	269655	45.716761433615	0
471	270895	45.721761433615	0
471	271861	45.726761433615	0
471	273198	45.731820831497	0
471	274442	45.736820831497	0
471	275723	45.742710178517	0
471	277342	45.747710178517	0
471	278377	45.752710178517	0
471	279250	45.757710178517	0
471	282576	45.772686050347	0
471	283779	45.777686050347	0
471	285482	45.782992344823	0
471	286601	45.787992344823	0
471	290545	45.805669185549	0
471	291718	45.810669185549	0
471	293178	45.815669185549	0
471	294471	45.820669185549	0
471	295962	45.825669185549	0
471	296934	45.830669185549	0
471	297950	45.835702884509	0
471	298927	45.840702884509	0
471	300731	45.845702884509	0
471	302464	45.850702884509	0
471	303580	45.855702884509	0
471	304830	45.860702884509	0
471	305668	45.865702884509	0
471	306794	45.870702884509	0
471	308998	45.879448333874	0
471	310245	45.884448333874	0
471	311044	45.889448333874	0
471	312122	45.894448333874	0
471	312298	45.899448333874	0
471	313508	45.904448333874	0
471	314899	45.909448333874	0
471	316052	45.915925003251	0
471	317292	45.920925003251	0
471	318271	45.925925003251	0
471	319310	45.930925003251	0
471	320325	45.936938393983	0
471	321689	45.941938393983	0
471	322660	45.946938393983	0
471	323668	45.951938393983	0
471	324337	45.956938393983	0
471	324914	45.961938393983	0
471	326223	45.967691813819	0
471	326804	45.972691813819	0
471	327971	45.985063596025	0
471	328097	45.990063596025	0
471	328528	45.995063596025	0
471	329334	46.000063596025	0
471	329335	46.005063596025	0
471	329922	46.043564060098	0
471	329923	46.048564060098	0
471	330488	46.066468092301	0
471	330489	46.071468092301	0
471	330626	46.505	1
471	331412	46.51	20
471	332876	46.515	0
471	334102	46.52	0
471	335162	46.525	0
471	336367	46.530965277561	0
471	337261	46.535965277561	0
471	337696	46.540965277561	0
471	338689	46.545965277561	0
471	339406	46.550965277561	0
471	340224	46.555965277561	0
471	341582	46.560965277561	0
471	343019	46.565965277561	0
471	343694	46.570965277561	0
471	344779	46.575965277561	0
471	345753	46.580965277561	0
471	346823	46.585965277561	0
471	347721	46.590965277561	0
471	348544	46.595965277561	0
471	349644	46.600965277561	0
471	350428	46.605965277561	0
471	351637	46.610965277561	0
471	352164	46.615965277561	0
471	354921	46.630922152527	0
471	355733	46.635922152527	0
471	356525	46.640922152527	0
471	357757	46.648861584743	0
471	358554	46.653861584743	0
471	361392	46.668751370426	0
471	362368	46.673751370426	0
471	363048	46.678751370426	0
471	363627	46.683751370426	0
471	364744	46.689669910778	0
471	365729	46.694669910778	0
471	366695	46.699669910778	0
471	366934	46.704669910778	0
471	367483	46.710304164827	0
471	367909	46.715304164827	0
471	368036	46.720304164827	0
471	368947	46.726978174398	0
471	369072	46.731978174398	0
471	370067	46.741961963263	0
471	370068	46.746961963263	0
471	370872	46.770110966355	0
471	371128	46.775110966355	0
471	371665	46.78565342211	0
471	371666	46.79065342211	0
471	372190	46.801197447956	0
471	372191	46.806197447956	0
471	373044	47.505	59
471	375528	47.51	0
471	378806	47.515	0
471	383690	47.530340449958	0
471	385407	47.535340449958	0
471	387093	47.540340449958	0
471	388960	47.545340449958	0
471	390343	47.550340449958	0
471	392036	47.555340449958	0
471	393634	47.560340449958	0
471	394918	47.565340449958	0
471	396162	47.570340449958	0
471	398318	47.576805704032	0
471	400597	47.581805704032	0
471	402715	47.59060743158	0
471	404383	47.59560743158	0
471	406632	47.602299131641	0
471	407744	47.607299131641	0
471	410514	47.615094214685	0
471	411220	47.620094214685	0
471	412095	47.625094214685	0
471	413984	47.630215927351	0
471	415230	47.635215927351	0
471	422028	47.65856370441	0
471	423454	47.66356370441	0
471	424944	47.66856370441	0
471	434310	47.70298530219	0
471	435545	47.70798530219	0
471	436710	47.71298530219	0
471	438292	47.71798530219	0
471	439844	47.72298530219	0
471	441203	47.72798530219	0
471	442743	47.73298530219	0
471	444421	47.73798530219	0
471	445712	47.74298530219	0
471	450037	47.757996202136	0
471	451412	47.762996202136	0
471	452736	47.769249238674	0
471	453999	47.774249238674	0
471	455807	47.781086881322	0
471	457299	47.786086881322	0
471	458963	47.791086881322	0
471	460567	47.796086881322	0
471	462016	47.802244664487	0
471	462877	47.807244664487	0
471	463845	47.812244664487	0
471	465783	47.81970282388	0
471	467576	47.82470282388	0
471	468620	47.82970282388	0
471	470009	47.83470282388	0
471	471897	47.842849824579	0
471	473165	47.847849824579	0
471	477330	47.863703454826	0
471	478209	47.868703454826	0
471	479929	47.873703454826	0
471	480942	47.878703454826	0
471	482225	47.883703454826	0
471	484906	47.894212145058	0
471	485893	47.899212145058	0
471	487313	47.904707085014	0
471	488422	47.909707085014	0
471	489414	47.914707085014	0
471	490294	47.919707085014	0
471	491650	47.924707085014	0
471	494253	47.933408446085	0
471	495262	47.938408446085	0
471	496011	47.944310848433	0
471	496705	47.949310848433	0
471	498021	47.954374537255	0
471	499581	47.959374537255	0
471	501624	47.971123081441	0
471	502052	47.976123081441	0
471	503407	47.983073339274	0
471	504093	47.988073339274	0
471	505258	47.993851349262	0
471	506115	47.998851349262	0
471	507526	48.003851349262	0
471	507962	48.008851349262	0
471	508968	48.017302303593	0
471	510072	48.022302303593	0
471	510540	48.027302303593	0
471	510792	48.032302303593	0
471	511835	48.040537961982	0
471	512705	48.045537961982	0
471	514090	48.050537961982	0
471	514219	48.055537961982	0
471	514808	48.062666562402	0
471	515395	48.067666562402	0
471	515804	48.072666562402	0
471	516792	48.080363647097	0
471	516793	48.085363647097	0
471	518226	48.111837979092	0
471	518227	48.116837979092	0
471	519917	48.133244276947	0
471	519918	48.138244276947	0
471	520495	48.149230632301	0
471	520496	48.154230632301	0
471	520973	48.505	40
471	522834	48.51	0
471	524903	48.515	0
471	527240	48.52	0
471	528536	48.525	0
471	529915	48.53	0
471	531345	48.535	0
471	532232	48.54	0
471	533545	48.545780630568	0
471	534252	48.550780630568	0
471	539997	48.574268747491	0
471	541160	48.579268747491	0
471	543056	48.584268747491	0
471	543984	48.589268747491	0
471	545146	48.594716769551	0
471	545985	48.599716769551	0
471	547685	48.604716769551	0
471	548553	48.609716769551	0
471	549837	48.616339189507	0
471	550818	48.621339189507	0
471	552074	48.626339189507	0
471	553471	48.631339189507	0
471	556975	48.643826293348	0
471	558326	48.648826293348	0
471	559594	48.653826293348	0
471	562495	48.667031340034	0
471	563463	48.672031340034	0
471	564906	48.679305748812	0
471	565882	48.684305748812	0
471	566622	48.689305748812	0
471	568184	48.699135773757	0
471	569143	48.704135773757	0
471	569698	48.709135773757	0
471	570955	48.716202368503	0
471	572303	48.721202368503	0
471	573379	48.726202368503	0
471	574492	48.731202368503	0
471	575211	48.736202368503	0
471	575879	48.741202368503	0
471	576841	48.746202368503	0
471	578309	48.751202368503	0
471	579200	48.756202368503	0
471	580738	48.761202368503	0
471	581924	48.766202368503	0
471	583341	48.773273331749	0
471	584509	48.778273331749	0
471	585318	48.783273331749	0
471	586929	48.790405669481	0
471	587879	48.795405669481	0
471	589457	48.802654270316	0
471	590421	48.807654270316	0
471	591436	48.812654270316	0
471	592127	48.817654270316	0
471	597345	48.853521357183	0
471	598177	48.858521357183	0
471	598747	48.863521357183	0
471	600057	48.872983463054	0
471	600746	48.877983463054	0
471	601756	48.882983463054	0
471	601894	48.887983463054	0
471	602589	48.893044400929	0
471	603006	48.898044400929	0
471	603163	48.903044400929	0
471	604839	48.916160169224	0
471	605521	48.921160169224	0
471	606243	48.932884648492	0
471	606820	48.937884648492	0
471	608230	49.022128308903	0
471	608231	49.027128308903	0
471	608251	49.505	1
471	608382	49.51	0
471	610756	49.516655196069	59
471	613332	49.521655196069	0
471	615519	49.526655196069	0
471	618034	49.531655196069	0
471	619797	49.537654507649	0
471	621280	49.542654507649	0
471	622920	49.547654507649	0
471	624398	49.552654507649	0
471	626211	49.557654507649	0
471	627532	49.562654507649	0
471	628939	49.567654507649	0
471	630329	49.572654507649	0
471	631798	49.577976531807	0
471	633597	49.582976531807	0
471	634983	49.587976531807	0
471	637837	49.595517468943	0
471	638887	49.600517468943	0
471	640285	49.605517468943	0
471	641441	49.610517468943	0
471	643461	49.617896117999	0
471	645112	49.622896117999	0
471	646802	49.627896117999	0
471	647990	49.632896117999	0
471	650259	49.641097715175	0
471	651905	49.646097715175	0
471	653799	49.651097715175	0
471	655942	49.661100281642	0
471	657221	49.666100281642	0
471	658738	49.671100281642	0
471	660712	49.677798379829	0
471	662732	49.682798379829	0
471	664213	49.687798379829	0
471	665363	49.692798379829	0
471	667751	49.700549438825	0
471	668876	49.705549438825	0
471	676854	49.735623910605	0
471	678613	49.740623910605	0
471	681428	49.751923519165	0
471	682925	49.756923519165	0
471	683953	49.761923519165	0
471	684713	49.766923519165	0
471	686234	49.771923519165	0
471	687584	49.776923519165	0
471	689369	49.781923519165	0
471	691402	49.786923519165	0
471	692938	49.791923519165	0
471	694926	49.796923519165	0
471	696212	49.801923519165	0
471	697917	49.808163993551	0
471	699483	49.813163993551	0
471	702839	49.824458340965	0
471	704135	49.829458340965	0
471	705370	49.834458340965	0
471	707189	49.839458340965	0
471	708395	49.844458340965	0
471	710039	49.849458340965	0
471	711617	49.855716377808	0
471	713266	49.860716377808	0
471	714800	49.865716377808	0
471	716626	49.871701156342	0
471	718205	49.876701156342	0
471	719358	49.881701156342	0
471	722395	49.893309216063	0
471	723702	49.898309216063	0
471	724676	49.903309216063	0
471	725827	49.908471279514	0
471	727114	49.913471279514	0
471	728104	49.918471279514	0
471	728988	49.923471279514	0
471	730194	49.928486352994	0
471	731320	49.933486352994	0
471	732568	49.938486352994	0
471	733181	49.943486352994	0
471	734049	49.948486352994	0
471	734785	49.953486352994	0
471	735891	49.958486352994	0
471	736637	49.963486352994	0
471	737508	49.970345924594	0
471	738498	49.975345924594	0
471	739808	49.980345924594	0
471	740351	49.985345924594	0
471	741522	49.995712203718	0
471	742503	50.000712203718	0
471	743633	50.00631690718	0
471	744861	50.01131690718	0
471	746216	50.020109190237	0
471	747334	50.025109190237	0
471	748099	50.030109190237	0
471	748700	50.035109190237	0
471	749273	50.040109190237	0
471	749279	50.045109190237	0
471	750703	50.055879919687	0
471	751127	50.060879919687	0
471	751567	50.06646938466	0
471	751697	50.07146938466	0
471	752696	50.07682814705	0
471	753260	50.08182814705	0
471	753385	50.08682814705	0
471	754588	50.096737387591	0
471	755641	50.101737387591	0
471	755645	50.106737387591	0
471	756858	50.119524912747	0
471	756983	50.124524912747	0
471	757392	50.505	1
471	757975	50.51	43
471	760017	50.515	0
471	761887	50.52	0
471	763466	50.526107727676	0
471	765173	50.531107727676	0
471	766460	50.536107727676	0
471	768103	50.541107727676	0
471	769736	50.546107727676	0
471	770850	50.551107727676	0
471	771957	50.556485951963	0
471	773103	50.561485951963	0
471	778124	50.582915749112	0
471	779483	50.587915749112	0
471	780435	50.592915749112	0
471	785353	50.612061775512	0
471	786165	50.617061775512	0
471	787842	50.623259070753	0
471	789404	50.628259070753	0
471	790530	50.633259070753	0
471	792062	50.638259070753	0
471	793041	50.643259070753	0
471	794439	50.650091814709	0
471	795445	50.655091814709	0
471	798547	50.665674265431	0
471	799949	50.670674265431	0
471	800801	50.675674265431	0
471	801947	50.683652143726	0
471	803362	50.688652143726	0
471	804737	50.693652143726	0
471	806282	50.699313565283	0
471	807889	50.704313565283	0
471	808623	50.709313565283	0
471	809680	50.714313565283	0
471	810664	50.719313565283	0
471	812038	50.724313565283	0
471	813211	50.729313565283	0
471	816051	50.741187431225	0
471	817214	50.746187431225	0
471	818507	50.751187431225	0
471	819877	50.756187431225	0
471	821264	50.761187431225	0
471	821965	50.766187431225	0
471	823757	50.772978040244	0
471	825327	50.777978040244	0
471	826466	50.782978040244	0
471	827539	50.787978040244	0
471	829203	50.793905800363	0
471	830800	50.798905800363	0
471	831964	50.803905800363	0
471	832831	50.808905800363	0
471	833905	50.813905800363	0
471	834721	50.818905800363	0
471	837993	50.831966124799	0
471	839015	50.836966124799	0
471	839593	50.841966124799	0
471	841073	50.846966124799	0
471	842111	50.851966124799	0
471	843208	50.856966124799	0
471	844371	50.862467813754	0
471	844633	50.867467813754	0
471	847546	50.881150998035	0
471	848291	50.886150998035	0
471	848721	50.891150998035	0
471	849891	50.897241064203	0
471	850332	50.902241064203	0
471	850763	50.907241064203	0
471	851437	50.912241064203	0
471	853545	50.924925962718	0
471	854015	50.929925962718	0
471	855001	50.937000032735	0
471	855585	50.942000032735	0
471	856642	50.94721397596	0
471	857200	50.95221397596	0
471	858291	50.95721397596	0
471	859002	50.96221397596	0
471	860032	50.967702825305	0
471	860048	50.972702825305	0
471	860590	50.977702825305	0
471	860591	50.982702825305	0
471	861421	51.013358870454	0
471	861422	51.018358870454	0
471	861998	51.027135564347	0
471	861999	51.032135564347	0
471	862057	51.505	1
471	862615	51.51	42
471	864636	51.515	0
471	867674	51.52	0
471	869468	51.525	0
471	870631	51.53	0
471	871956	51.535	0
471	873549	51.54	0
471	874570	51.545	0
471	875957	51.55	0
471	879079	51.561132742701	0
471	880453	51.566132742701	0
471	881688	51.571132742701	0
471	883260	51.576132742701	0
471	884397	51.581132742701	0
471	886530	51.591518682975	0
471	887550	51.596518682975	0
471	891542	51.612388958164	0
471	893036	51.617388958164	0
471	894591	51.622388958164	0
471	895588	51.627388958164	0
471	897141	51.632388958164	0
471	899000	51.641868298938	0
471	900574	51.646868298938	0
471	901278	51.651868298938	0
471	903203	51.656993785881	0
471	904408	51.661993785881	0
471	908314	51.678915999757	0
471	909849	51.683915999757	0
471	911074	51.688915999757	0
471	912318	51.693915999757	0
471	913709	51.700153936755	0
471	914850	51.705153936755	0
471	916673	51.71196530974	0
471	917717	51.71696530974	0
471	918763	51.723872505627	0
471	920436	51.728872505627	0
471	922078	51.733872505627	0
471	923895	51.738872505627	0
471	924603	51.743872505627	0
471	925856	51.748872505627	0
471	927131	51.753872505627	0
471	928542	51.758872505627	0
471	930112	51.763872505627	0
471	931879	51.771824925885	0
471	932851	51.776824925885	0
471	934245	51.781824925885	0
471	935844	51.786824925885	0
471	937551	51.791824925885	0
471	938917	51.796824925885	0
471	940237	51.801824925885	0
471	941660	51.806824925885	0
471	942438	51.811824925885	0
471	944646	51.821025627805	0
471	946185	51.826025627805	0
471	946908	51.831025627805	0
471	948166	51.836025627805	0
471	949149	51.841025627805	0
471	949989	51.846025627805	0
471	951537	51.853406714163	0
471	952501	51.858406714163	0
471	953438	51.863406714163	0
471	954685	51.868406714163	0
471	956611	51.87855670547	0
471	957442	51.88355670547	0
471	958127	51.88855670547	0
471	959079	51.89355670547	0
471	962330	51.921624168262	0
471	963368	51.926624168262	0
471	963813	51.931624168262	0
471	964578	51.936624168262	0
471	964583	51.941624168262	0
471	965133	51.946624168262	0
471	965971	51.951624168262	0
471	966571	51.956624168262	0
471	967160	51.961624168262	0
471	967746	51.969283496792	0
471	967748	51.974283496792	0
471	968351	51.988368196307	0
471	968352	51.993368196307	0
471	969167	52.059978991652	0
471	969168	52.064978991652	0
471	969195	52.505	1
471	969202	52.51	0
471	970704	52.519924391594	20
471	972288	52.524924391594	0
471	973439	52.529924391594	0
471	974935	52.534924391594	0
471	975940	52.539924391594	0
471	977089	52.544924391594	0
471	978907	52.551891159667	0
471	980259	52.556891159667	0
471	981877	52.561891159667	0
471	983155	52.566891159667	0
471	984225	52.571891159667	0
471	985759	52.576891159667	0
471	986756	52.581891159667	0
471	987380	52.587619217759	0
471	988943	52.592619217759	0
471	990587	52.597619217759	0
471	991694	52.602619217759	0
471	992600	52.607619217759	0
471	993876	52.612619217759	0
471	995131	52.617619217759	0
471	996420	52.623057487468	0
471	997405	52.628057487468	0
471	998009	52.633057487468	0
471	999466	52.639724468268	0
471	1000720	52.644724468268	0
471	1001239	52.649724468268	0
471	1001835	52.654724468268	0
471	1001960	52.659724468268	0
471	1002737	52.665193510283	0
471	1003562	52.670193510283	0
471	1004346	52.675193510283	0
471	1004954	52.684574956918	0
471	1005918	52.689574956918	0
471	1006702	52.694574956918	0
471	1006703	52.699574956918	0
471	1008029	52.714523190496	0
471	1008450	52.719523190496	0
471	1008451	52.724523190496	0
471	1008990	52.744686176443	0
471	1008991	52.749686176443	0
471	1010115	52.758396631755	0
471	1010666	52.763396631755	0
471	1011276	52.770590983377	0
471	1011277	52.775590983377	0
471	1012426	52.806950199032	0
471	1012969	52.811950199032	0
471	1013772	52.85907238151	0
471	1014075	52.86407238151	0
471	1015186	52.933593463902	0
471	1015786	52.938593463902	0
471	1015787	52.943593463902	0
471	1016083	53.505	1
471	1016090	53.51	0
471	1018319	53.519417270336	51
471	1020512	53.524417270336	0
471	1022542	53.529417270336	0
471	1024755	53.534417270336	0
471	1025891	53.539417270336	0
471	1027067	53.544417270336	0
471	1028245	53.549417270336	0
471	1029700	53.554417270336	0