file 234612 1353341565                                          
version 2
run AODVScenario_1f-38-20121119-16:12:20-3432
attr configname AODVScenario_1f
attr datetime 20121119-16:12:20
attr experiment AODVScenario_1f
attr inifile AODV.ini
attr iterationvars $numNodes=88
attr iterationvars2 "$numNodes=88, $repetition=0"
attr measurement $numNodes=88
attr network csma802154net
attr numNodes 88
attr processid 3432
attr repetition 0
attr replication #0
attr resultdir results
attr runnumber 38
attr seedset 38

vector 363  csma802154net.dataCentricNetworkMan  RREQPacketFrequency  ETV
vector 364  csma802154net.dataCentricNetworkMan  RERRPacketFrequency  ETV
vector 365  csma802154net.dataCentricNetworkMan  DiscoveryPacketFrequency  ETV
vector 366  csma802154net.dataCentricNetworkMan  RegisterPacketFrequency  ETV
vector 367  csma802154net.dataCentricNetworkMan  RReplyPacketFrequency  ETV
vector 368  csma802154net.dataCentricNetworkMan  AODVDataPacketFrequency  ETV
vector 375  csma802154net.dataCentricNetworkMan  pendingRegistrationVector  ETV
vector 374  csma802154net.dataCentricNetworkMan  pendingRREQVector  ETV
vector 372  csma802154net.dataCentricNetworkMan  PendingDataPacketsVector  ETV
vector 378  csma802154net.fixhost[2].udpApp  "End-to-end delay"  ETV
vector 360  csma802154net.dataCentricNetworkMan  dataPacketE2EDelay  ETV
vector 381  csma802154net.fixhost[5].udpApp  "End-to-end delay"  ETV
vector 383  csma802154net.fixhost[7].udpApp  "End-to-end delay"  ETV
vector 397  csma802154net.fixhost[21].udpApp  "End-to-end delay"  ETV
vector 384  csma802154net.fixhost[8].udpApp  "End-to-end delay"  ETV
vector 385  csma802154net.fixhost[9].udpApp  "End-to-end delay"  ETV
vector 388  csma802154net.fixhost[12].udpApp  "End-to-end delay"  ETV
vector 393  csma802154net.fixhost[17].udpApp  "End-to-end delay"  ETV
vector 380  csma802154net.fixhost[4].udpApp  "End-to-end delay"  ETV
vector 386  csma802154net.fixhost[10].udpApp  "End-to-end delay"  ETV
vector 387  csma802154net.fixhost[11].udpApp  "End-to-end delay"  ETV
360	2012 6470 676368 2170132 70.027236029661 7273.069300155818 143 0.007076029661 0.122556189001 4.88691348198 0.2487063217107
363	8482 34336 697 2170355 1.005 7273.07574012516 1210 0 87 1914 104842
364	42818 34295 697 2170355 1.005 7273.07574012516 1210 0 0 0 0
365	77113 34295 697 2170355 1.005 7273.07574012516 1210 0 0 0 0
366	111408 34295 697 2170355 1.005 7273.07574012516 1210 0 1 12 12
367	145703 34307 697 2170355 1.005 7273.07574012516 1210 0 94 1341 45563
368	180010 34311 697 2170355 1.005 7273.07574012516 1210 0 80 1178 37944
372	214321 11984 675617 2170132 70 7273.069300155818 390 0 3 455 871
374	226305 1284 33988 627588 43.50001 54.587913835399 46 0 1 15 15
375	227589 553 33983 671539 43.5 54.89334506258 23 0 2 26 40
378	228142 588 676368 2155895 70.027236029661 7270.007716029661 13 0.007076029661 0.027236029661 0.132308385591 0.0016720835767551
380	228730 592 688281 2168776 73.031516096619 7273.041292096617 13 0.030556096618 0.057612096619 0.487813256038 0.018951424007228
381	229322 592 676800 2156328 70.031996060309 7270.012476060309 13 0.010556060309 0.031996060309 0.190668784014 0.0031341902459633
383	229914 592 677227 2156755 70.036756082188 7270.015956082188 13 0.015956082187 0.036756082188 0.247109068441 0.0050532139466128
384	230506 588 680642 2159751 71.043404055672 7271.048452055672 13 0.015636055671 0.048452055672 0.331972723728 0.010270825906824
385	231094 592 682605 2161714 72.016276059802 7272.017876059802 13 0.014356059801 0.029956125801 0.246308909418 0.0049122886731632
386	231686 580 690074 2168206 73.068484156631 7273.034604123631 13 0.034604123631 0.114668156628 0.778709805192 0.052080130344365
387	232266 588 690999 2170132 73.075164189003 7273.069300155818 13 0.064924185576 0.122556189001 1.113430221323 0.099380944068609
388	232854 584 683461 2162570 72.027044091621 7272.027684091621 13 0.023204091619 0.051004124621 0.416437388647 0.014371887223384
393	233438 590 684761 2163869 72.051604130314 7272.039124130314 13 0.03496413031 0.064012130314 0.59590988137 0.028664928340159
397	234028 584 679783 2159311 71.022316081402 7271.021036081401 13 0.0187960814 0.047204081402 0.346245058218 0.010214405377635
