version 2
run AODVScenario_1f-8-20121119-16:00:15-3824
attr configname AODVScenario_1f
attr datetime 20121119-16:00:15
attr experiment AODVScenario_1f
attr inifile AODV.ini
attr iterationvars $numNodes=58
attr iterationvars2 "$numNodes=58, $repetition=0"
attr measurement $numNodes=58
attr network csma802154net
attr numNodes 58
attr processid 3824
attr repetition 0
attr replication #0
attr resultdir results
attr runnumber 8
attr seedset 8

vector 243  csma802154net.dataCentricNetworkMan  RREQPacketFrequency  ETV
vector 244  csma802154net.dataCentricNetworkMan  RERRPacketFrequency  ETV
vector 245  csma802154net.dataCentricNetworkMan  DiscoveryPacketFrequency  ETV
vector 246  csma802154net.dataCentricNetworkMan  RegisterPacketFrequency  ETV
vector 247  csma802154net.dataCentricNetworkMan  RReplyPacketFrequency  ETV
vector 248  csma802154net.dataCentricNetworkMan  AODVDataPacketFrequency  ETV
vector 255  csma802154net.dataCentricNetworkMan  pendingRegistrationVector  ETV
vector 254  csma802154net.dataCentricNetworkMan  pendingRREQVector  ETV
vector 252  csma802154net.dataCentricNetworkMan  PendingDataPacketsVector  ETV
vector 258  csma802154net.fixhost[2].udpApp  "End-to-end delay"  ETV
vector 240  csma802154net.dataCentricNetworkMan  dataPacketE2EDelay  ETV
vector 263  csma802154net.fixhost[7].udpApp  "End-to-end delay"  ETV
vector 267  csma802154net.fixhost[11].udpApp  "End-to-end delay"  ETV
vector 269  csma802154net.fixhost[13].udpApp  "End-to-end delay"  ETV
vector 265  csma802154net.fixhost[9].udpApp  "End-to-end delay"  ETV
vector 261  csma802154net.fixhost[5].udpApp  "End-to-end delay"  ETV
vector 266  csma802154net.fixhost[10].udpApp  "End-to-end delay"  ETV
vector 272  csma802154net.fixhost[16].udpApp  "End-to-end delay"  ETV
vector 273  csma802154net.fixhost[17].udpApp  "End-to-end delay"  ETV
vector 264  csma802154net.fixhost[8].udpApp  "End-to-end delay"  ETV
vector 262  csma802154net.fixhost[6].udpApp  "End-to-end delay"  ETV
240	301172	70.012196020653	0.012196020653
240	301466	70.015676033783	0.015676033783
240	302073	70.02615607168	0.02615607168
240	304394	71.027076112152	0.027076112152
240	304707	71.034044101666	0.034044101666
240	306339	71.111196084874	0.111196084874
240	307688	72.01499605607	0.01499605607
240	308697	72.028924091355	0.028924091355
240	309365	72.056692113555	0.056692113555
240	311711	73.031516105065	0.031516105065
240	312646	73.044812097011	0.044812097011
240	384268	670.008676020654	0.008676020654
240	384563	670.012156033784	0.012156033784
240	385170	670.024556071682	0.024556071682
240	386932	671.021996057181	0.021996057181
240	388060	671.058292112153	0.058292112153
240	388676	671.079700080331	0.079700080331
240	390155	672.019156056071	0.019156056071
240	391231	672.053244091355	0.053244091355
240	391835	672.078772113555	0.078772113555
240	394178	673.031196105065	0.031196105065
240	395125	673.047692097011	0.047692097011
240	466747	1270.008356020654	0.008356020654
240	467042	1270.012796033784	0.012796033784
240	467650	1270.027436071682	0.027436071682
240	469717	1271.023236084875	0.023236084875
240	470095	1271.026116101667	0.026116101667
240	470728	1271.055412112153	0.055412112153
240	472203	1272.014996056071	0.014996056071
240	473125	1272.049404113555	0.049404113555
240	473759	1272.061740091354	0.061740091354
240	476711	1273.037844097011	0.037844097011
240	477030	1273.040476105065	0.040476105065
240	548718	1870.009316020654	0.009316020654
240	549013	1870.012796033784	0.012796033784
240	549620	1870.021036071682	0.021036071682
240	551633	1871.026436112151	0.026436112151
240	552249	1871.038844084874	0.038844084874
240	552553	1871.043644101666	0.043644101666
240	554672	1872.026436091356	0.026436091356
240	555577	1872.053564113833	0.053564113833
240	555888	1872.06344414653	0.06344414653
240	558521	1873.030236097011	0.030236097011
240	559160	1873.037524105064	0.037524105064
240	630791	2470.011236020654	0.011236020654
240	631086	2470.016636033784	0.016636033784
240	631692	2470.025516071682	0.025516071682
240	633708	2471.025796112153	0.025796112153
240	634331	2471.036284101667	0.036284101667
240	634641	2471.042292084875	0.042292084875
240	636621	2472.02260405607	0.02260405607
240	636940	2472.024836091356	0.024836091356
240	637543	2472.035892113556	0.035892113556
240	640326	2473.03599609701	0.03599609701
240	640797	2473.039476109842	0.039476109842
240	712738	3070.011876020653	0.011876020653
240	713033	3070.017276033783	0.017276033783
240	713639	3070.024876071679	0.024876071679
240	715400	3071.018796057181	0.018796057181
240	716399	3071.05122008033	0.05122008033
240	716720	3071.056300112151	0.056300112151
240	718076	3072.01691605607	0.01691605607
240	718993	3072.031164113555	0.031164113555
240	719620	3072.037812091354	0.037812091354
240	722578	3073.03176409701	0.03176409701
240	722893	3073.034324105063	0.034324105063
240	794581	3670.007396020654	0.007396020654
240	794876	3670.012796033784	0.012796033784
240	795484	3670.025196071682	0.025196071682
240	797483	3671.021356057181	0.021356057181
240	798245	3671.029564112153	0.029564112153
240	798557	3671.047132080331	0.047132080331
240	800038	3672.01659605607	0.01659605607
240	801281	3672.052532113555	0.052532113555
240	801593	3672.056052091355	0.056052091355
240	804541	3673.02863609701	0.02863609701
240	804855	3673.030556105065	0.030556105065
240	876485	4270.009316020652	0.009316020652
240	876780	4270.014396033781	0.014396033781
240	877387	4270.022316071678	0.022316071678
240	879457	4271.023236084874	0.023236084874
240	879830	4271.025156101665	0.025156101665
240	880462	4271.054132112152	0.054132112152
240	882550	4272.027396113833	0.027396113833
240	882860	4272.032156146529	0.032156146529
240	883790	4272.054204091355	0.054204091355
240	886426	4273.028956097007	0.028956097007
240	887066	4273.036884105062	0.036884105062
240	958696	4870.008996020654	0.008996020654
240	958991	4870.013756033784	0.013756033784
240	959598	4870.022636071682	0.022636071682
240	961614	4871.025476112153	0.025476112153
240	962229	4871.034612084875	0.034612084875
240	962534	4871.043252101667	0.043252101667
240	964199	4872.02036405607	0.02036405607
240	965117	4872.049052088767	0.049052088767
240	966046	4872.078628091356	0.078628091356
240	968666	4873.029596097011	0.029596097011
240	969303	4873.035036105065	0.035036105065
240	1041284	5470.009316020654	0.009316020654
240	1041579	5470.013116033784	0.013116033784
240	1042186	5470.022956071682	0.022956071682
240	1044192	5471.023556084874	0.023556084874
240	1044819	5471.031484112153	0.031484112153
240	1045130	5471.040372101667	0.040372101667
240	1047408	5472.022596091356	0.022596091356
240	1047709	5472.027644113833	0.027644113833
240	1048020	5472.03816414653	0.03816414653
240	1050796	5473.039836097011	0.039836097011
240	1051739	5473.064404105064	0.064404105064
240	1123369	6070.007716020654	0.007716020654
240	1123664	6070.013116033784	0.013116033784
240	1124271	6070.021996071682	0.021996071682
240	1126107	6071.022636057181	0.022636057181
240	1127039	6071.057332112153	0.057332112153
240	1127804	6071.088196080331	0.088196080331
240	1129162	6072.015316056071	0.015316056071
240	1130228	6072.026436091356	0.026436091356
240	1130832	6072.051004113555	0.051004113555
240	1133296	6073.029596097011	0.029596097011
240	1134236	6073.054804105065	0.054804105065
240	1205866	6670.008356020654	0.008356020654
240	1206161	6670.012156033784	0.012156033784
240	1206768	6670.021356071682	0.021356071682
240	1208604	6671.02167605718	0.02167605718
240	1209537	6671.054132112152	0.054132112152
240	1209847	6671.06074808033	0.06074808033
240	1211328	6672.015956056071	0.015956056071
240	1212713	6672.051252091356	0.051252091356
240	1213019	6672.078380113555	0.078380113555
240	1215484	6673.033436097011	0.033436097011
240	1216425	6673.057364105065	0.057364105065
240	1288113	7270.008676020654	0.008676020654
240	1288408	7270.013756033784	0.013756033784
240	1289015	7270.021996071682	0.021996071682
240	1290836	7271.02135605718	0.02135605718
240	1291769	7271.051004112153	0.051004112153
240	1292079	7271.056980080328	0.056980080328
240	1293441	7272.015636056071	0.015636056071
240	1294662	7272.026684091355	0.026684091355
240	1294959	7272.028924113556	0.028924113556
240	1297306	7273.030556105063	0.030556105063
240	1298253	7273.053380097009	0.053380097009
243	530	1.005	1
243	723	1.01	22
243	1255	1.015	44
243	2109	1.02	50
243	2847	1.025	23
243	3711	1.03	59
243	4597	1.035	38
243	5546	1.04	56
243	6329	1.045	33
243	6909	1.05	58
243	7367	1.055	38
243	7767	1.06	12
243	8273	1.065	40
243	8800	1.07	13
243	9447	1.075	45
243	9956	1.08	40
243	10467	1.085	31
243	10618	1.09	19
243	10619	1.095	0
243	11053	1.106621291361	39
243	11054	1.111621291361	0
243	11274	1.123989291361	20
243	11275	1.128989291361	0
243	11490	1.167316934262	19
243	11491	1.172316934262	0
243	16532	43.505	1
243	16606	43.51	0
243	17369	43.515537213564	16
243	18007	43.520537213564	0
243	18523	43.525537213564	0
243	19217	43.531691657331	0
243	19409	43.536691657331	0
243	19843	43.54209480412	0
243	20255	43.54709480412	0
243	20799	43.55209480412	0
243	21267	43.55709480412	0
243	21817	43.56209480412	0
243	22423	43.573517629299	0
243	22794	43.578517629299	0
243	23203	43.583517629299	0
243	24370	43.596453611559	0
243	24710	43.601453611559	0
243	25062	43.606453611559	0
243	25419	43.611453611559	0
243	25749	43.616514634389	0
243	26162	43.621514634389	0
243	26432	43.626514634389	0
243	26781	43.632439873565	0
243	27134	43.637439873565	0
243	27486	43.642439873565	0
243	27964	43.647439873565	0
243	28242	43.652439873565	0
243	28702	43.657439873565	0
243	28703	43.662439873565	0
243	28848	43.670629619199	0
243	29123	43.675629619199	0
243	29401	43.680629619199	0
243	30565	43.695107569209	0
243	30774	43.700107569209	0
243	30842	43.705107569209	0
243	31385	43.71935189819	0
243	31587	43.72435189819	0
243	31711	44.505	1
243	31718	44.51	0
243	32514	44.518346019234	17
243	33083	44.523346019234	0
243	33702	44.528346019234	0
243	34138	44.533346019234	0
243	34331	44.538346019234	0
243	34764	44.543729044422	0
243	34992	44.548729044422	0
243	35755	44.559848000933	0
243	35975	44.564848000933	0
243	36591	44.569848000933	0
243	36928	44.574848000933	0
243	37432	44.580256452159	0
243	37844	44.585256452159	0
243	38080	44.590256452159	0
243	39565	44.605708351013	0
243	40242	44.610708351013	0
243	40738	44.617248012123	0
243	41094	44.622248012123	0
243	42428	44.636128051549	0
243	42959	44.641128051549	0
243	43180	44.647792832811	0
243	43729	44.652792832811	0
243	44166	44.657792832811	0
243	44777	44.662792832811	0
243	45428	44.669144699083	0
243	45911	44.674144699083	0
243	46262	44.679144699083	0
243	46614	44.684144699083	0
243	47105	44.689144699083	0
243	47398	44.694144699083	0
243	48515	44.70444084908	0
243	48516	44.70944084908	0
243	49306	44.724758438691	0
243	49521	44.729758438691	0
243	49810	44.734758438691	0
243	50014	44.739758438691	0
243	50355	45.505	1
243	50647	45.51	29
243	51938	45.515	0
243	52998	45.52	0
243	53902	45.525	0
243	54492	45.53	0
243	55081	45.535952420258	0
243	55872	45.540952420258	0
243	56841	45.545952420258	0
243	57561	45.550952420258	0
243	58147	45.555952420258	0
243	59127	45.560952420258	0
243	59961	45.565952420258	0
243	60600	45.570952420258	0
243	61796	45.582281680705	0
243	62299	45.587281680705	0
243	63724	45.598995801282	0
243	64412	45.603995801282	0
243	65539	45.61446371896	0
243	66237	45.61946371896	0
243	67051	45.62446371896	0
243	67682	45.62946371896	0
243	68267	45.636143879452	0
243	68771	45.641143879452	0
243	69786	45.649663601373	0
243	70359	45.654663601373	0
243	71778	45.667452701185	0
243	72550	45.672452701185	0
243	73135	45.677452701185	0
243	73906	45.682452701185	0
243	74811	45.688663099737	0
243	75109	45.693663099737	0
243	75751	45.698663099737	0
243	76393	45.705071316925	0
243	76896	45.710071316925	0
243	77976	45.718213559765	0
243	78321	45.723213559765	0
243	79321	45.731226220257	0
243	79781	45.736226220257	0
243	80217	45.741226220257	0
243	80665	45.746226220257	0
243	81504	45.751226220257	0
243	81939	45.756226220257	0
243	82602	45.761226220257	0
243	83028	45.766226220257	0
243	83591	45.771226220257	0
243	84233	45.776226220257	0
243	84306	45.781226220257	0
243	85298	45.796345736204	0
243	85383	45.801345736204	0
243	85662	45.806345736204	0
243	86528	45.830695334215	0
243	86531	45.835695334215	0
243	87030	45.840695334215	0
243	87266	45.845695334215	0
243	87750	45.850695334215	0
243	87835	45.855695334215	0
243	88138	45.869352422836	0
243	88421	45.874352422836	0
243	88545	46.505	1
243	88555	46.51	0
243	89360	46.517496832444	14
243	89841	46.522496832444	0
243	90560	46.527496832444	0
243	90939	46.532496832444	0
243	91303	46.537496832444	0
243	91456	46.542496832444	0
243	92057	46.549428534937	0
243	92700	46.554428534937	0
243	92983	46.559428534937	0
243	93635	46.565414187641	0
243	94218	46.570414187641	0
243	94573	46.575414187641	0
243	95277	46.58062103136	0
243	95902	46.58562103136	0
243	95904	46.59062103136	0
243	97501	46.614008420722	0
243	97878	46.619008420722	0
243	98430	46.624008420722	0
243	100014	46.641256318556	0
243	100372	46.646256318556	0
243	100596	46.651256318556	0
243	100887	46.656256318556	0
243	101174	46.661256318556	0
243	101463	46.669025977193	0
243	101464	46.674025977193	0
243	101752	46.706880712471	0
243	102047	46.711880712471	0
243	102048	46.716880712471	0
243	102327	46.733985951543	0
243	102328	46.738985951543	0
243	102614	46.81320996971	0
243	102615	46.81820996971	0
243	102751	47.505	1
243	103269	47.51	23
243	104456	47.515	0
243	105299	47.52	0
243	105848	47.525539516741	0
243	106263	47.530539516741	0
243	106713	47.535539516741	0
243	107642	47.540539516741	0
243	108378	47.545539516741	0
243	108974	47.550539516741	0
243	109622	47.555539516741	0
243	110213	47.560539516741	0
243	110800	47.565539516741	0
243	111255	47.570539516741	0
243	111628	47.575539516741	0
243	112253	47.580979664266	0
243	112874	47.585979664266	0
243	113401	47.590979664266	0
243	114127	47.597946924851	0
243	114723	47.602946924851	0
243	115152	47.607946924851	0
243	115829	47.617583155856	0
243	116356	47.622583155856	0
243	117440	47.635153435052	0
243	117828	47.640153435052	0
243	118261	47.645153435052	0
243	119317	47.654910747562	0
243	119613	47.659910747562	0
243	119906	47.665809627259	0
243	120427	47.670809627259	0
243	121369	47.679594938107	0
243	121736	47.684594938107	0
243	122242	47.692251531086	0
243	122803	47.697251531086	0
243	123121	47.702251531086	0
243	123794	47.707251531086	0
243	124436	47.712251531086	0
243	124741	47.717251531086	0
243	125264	47.722251531086	0
243	125332	47.727251531086	0
243	125712	47.732806723455	0
243	125915	47.737806723455	0
243	126455	47.743135755358	0
243	126755	47.748135755358	0
243	127041	47.753135755358	0
243	127340	47.767022752357	0
243	127633	47.772022752357	0
243	127926	47.780888467406	0
243	127927	47.785888467406	0
243	128225	47.831206769283	0
243	128226	47.836206769283	0
243	128350	48.505	1
243	128363	48.51	0
243	129303	48.517017436063	22
243	130113	48.522017436063	0
243	131065	48.530185173694	0
243	131738	48.535185173694	0
243	132419	48.540185173694	0
243	133080	48.545185173694	0
243	133744	48.550185173694	0
243	134260	48.555185173694	0
243	134718	48.560185173694	0
243	135244	48.565185173694	0
243	135778	48.570185173694	0
243	136494	48.57738278047	0
243	137083	48.58238278047	0
243	137811	48.588947183438	0
243	138287	48.593947183438	0
243	138732	48.598947183438	0
243	139122	48.603947183438	0
243	139574	48.608947183438	0
243	140499	48.613947183438	0
243	140957	48.618947183438	0
243	141255	48.623947183438	0
243	141611	48.628947183438	0
243	141836	48.633947183438	0
243	142512	48.638947183438	0
243	143108	48.64913872707	0
243	143422	48.65413872707	0
243	143756	48.65913872707	0
243	144438	48.664279459431	0
243	144604	48.669279459431	0
243	145779	48.685174800479	0
243	146280	48.690174800479	0
243	146802	48.695174800479	0
243	147248	48.700174800479	0
243	147687	48.705174800479	0
243	148271	48.710174800479	0
243	148560	48.715174800479	0
243	148859	48.720174800479	0
243	149137	48.725174800479	0
243	149737	48.73824575267	0
243	150036	48.74324575267	0
243	150270	48.74824575267	0
243	150701	48.75324575267	0
243	150932	48.75824575267	0
243	150933	48.76324575267	0
243	151073	49.505	1
243	151147	49.51	0
243	152089	49.51649595575	20
243	153002	49.52149595575	0
243	153891	49.52649595575	0
243	154702	49.53149595575	0
243	155004	49.53649595575	0
243	156226	49.543712993481	0
243	156663	49.548712993481	0
243	157544	49.554774652902	0
243	158048	49.559774652902	0
243	158417	49.564774652902	0
243	159406	49.576497199947	0
243	160028	49.581497199947	0
243	160671	49.586497199947	0
243	161395	49.591497199947	0
243	161829	49.596497199947	0
243	162795	49.607755548643	0
243	163309	49.612755548643	0
243	164049	49.619227237531	0
243	164428	49.624227237531	0
243	166258	49.641341004874	0
243	166769	49.646341004874	0
243	167204	49.651341004874	0
243	167780	49.656341004874	0
243	168450	49.661341004874	0
243	168907	49.666341004874	0
243	169204	49.671341004874	0
243	170517	49.684341165246	0
243	171047	49.689341165246	0
243	171342	49.694341165246	0
243	171827	49.701270743797	0
243	172280	49.706270743797	0
243	172910	49.711270743797	0
243	173617	49.719944095104	0
243	174057	49.724944095104	0
243	174590	49.729944095104	0
243	175310	49.734944095104	0
243	175685	49.739944095104	0
243	175909	49.744944095104	0
243	175981	49.749944095104	0
243	176276	49.755235561343	0
243	176653	49.760235561343	0
243	176654	49.765235561343	0
243	177569	49.79169172708	0
243	177863	49.79669172708	0
243	178097	49.80169172708	0
243	178333	49.80669172708	0
243	178617	50.505	1
243	178874	50.51	12
243	179606	50.515	0
243	180042	50.52	0
243	180429	50.525846307165	0
243	180735	50.530846307165	0
243	181179	50.535846307165	0
243	181847	50.540846307165	0
243	182783	50.545846307165	0
243	183361	50.550846307165	0
243	183757	50.555846307165	0
243	184367	50.560846307165	0
243	185287	50.565846307165	0
243	185810	50.570846307165	0
243	186308	50.575846307165	0
243	186801	50.580846307165	0
243	187320	50.585846307165	0
243	187615	50.590846307165	0
243	188223	50.595846307165	0
243	188365	50.600846307165	0
243	188953	50.607581839992	0
243	189176	50.612581839992	0
243	189462	50.617581839992	0
243	189957	50.625274384329	0
243	190252	50.630274384329	0
243	190609	50.635520820881	0
243	190836	50.640520820881	0
243	191361	50.64593469763	0
243	191437	50.65093469763	0
243	192268	50.660110701862	0
243	192269	50.665110701862	0
243	192687	50.674084142772	0
243	193152	50.679084142772	0
243	193153	50.684084142772	0
243	193306	51.505	1
243	193540	51.51	12
243	194134	51.515	0
243	194683	51.52	0
243	195151	51.525	0
243	195813	51.53	0
243	196186	51.535	0
243	196552	51.54	0
243	196918	51.545	0
243	197427	51.55062789452	0
243	197725	51.55562789452	0
243	198168	51.56062789452	0
243	198504	51.56562789452	0
243	199033	51.571716204639	0
243	199352	51.576716204639	0
243	199867	51.581716204639	0
243	200552	51.586716204639	0
243	201074	51.591716204639	0
243	201580	51.596716204639	0
243	202172	51.601716204639	0
243	202593	51.606716204639	0
243	202597	51.611716204639	0
243	202820	51.618745826291	0
243	203341	51.623745826291	0
243	203699	51.628745826291	0
243	203926	51.633745826291	0
243	204347	51.644443876837	0
243	204348	51.649443876837	0
243	205241	51.674787903003	0
243	205473	51.679787903003	0
243	205839	51.684787903003	0
243	205840	51.689787903003	0
243	206051	52.505	1
243	206540	52.51	17
243	207450	52.515	0
243	208404	52.52	0
243	209086	52.525	0
243	209539	52.53	0
243	209851	52.535	0
243	210437	52.54	0
243	210828	52.545	0
243	211530	52.55	0
243	211994	52.555	0
243	212938	52.561967286648	0
243	213258	52.566967286648	0
243	214119	52.579971186972	0
243	214392	52.584971186972	0
243	214619	52.589971186972	0
243	215205	52.594971186972	0
243	215660	52.601708660642	0
243	215973	52.606708660642	0
243	216497	52.611708660642	0
243	217087	52.616708660642	0
243	217663	52.621708660642	0
243	219408	52.652090678917	0
243	219656	52.657090678917	0
243	220490	52.666341106827	0
243	220793	52.671341106827	0
243	221407	52.676341106827	0
243	221841	52.681341106827	0
243	222484	52.687408249931	0
243	223078	52.692408249931	0
243	223378	52.697408249931	0
243	223756	52.702408249931	0
243	224043	52.707408249931	0
243	225484	52.725240544209	0
243	225772	52.730240544209	0
243	226080	52.735240544209	0
243	226081	52.740240544209	0
243	226697	52.753836680376	0
243	227015	52.758836680376	0
243	227337	52.763836680376	0
243	227634	52.768836680376	0
243	227781	53.505	1
243	227855	53.51	0
243	229134	53.515676358185	26
243	230260	53.520676358185	0
243	231141	53.525676358185	0
243	232157	53.530780741376	0
243	232870	53.535780741376	0
243	233505	53.540780741376	0
243	234303	53.545780741376	0
243	235328	53.553412962713	0
243	235796	53.558412962713	0
243	236270	53.563412962713	0
243	236723	53.568412962713	0
243	237542	53.573412962713	0
243	238362	53.579137028343	0
243	238929	53.584137028343	0
243	239660	53.589137028343	0
243	240122	53.594137028343	0
243	241774	53.605117382788	0
243	242459	53.610117382788	0
243	243320	53.615117382788	0
243	246391	53.639916986272	0
243	246900	53.644916986272	0
243	248992	53.662191657638	0
243	249362	53.667191657638	0
243	250224	53.672954377614	0
243	250697	53.677954377614	0
243	251520	53.683070846951	0
243	251987	53.688070846951	0
243	253531	53.70283372709	0
243	254300	53.70783372709	0
243	255078	53.71283372709	0
243	255319	53.71783372709	0
243	256371	53.730239344121	0
243	257081	53.735239344121	0
243	257545	53.740239344121	0
243	258059	53.745239344121	0
243	258434	53.750239344121	0
243	259084	53.755830863511	0
243	259334	53.760830863511	0
243	260004	53.768643730614	0
243	260385	53.773643730614	0
243	261089	53.780457751378	0
243	261334	53.785457751378	0
243	261735	53.790457751378	0
243	262544	53.795457751378	0
243	262861	53.800457751378	0
243	263184	53.805457751378	0
243	263507	53.810457751378	0
243	263509	53.815457751378	0
243	263670	53.820457751378	0
243	264153	53.825457751378	0
243	264539	53.830457751378	0
243	265109	53.836165731761	0
243	265408	53.841165731761	0
243	265560	54.505	1
243	265919	54.51	25
243	267152	54.515	0
243	268332	54.52	0
243	268954	54.525	0
243	269475	54.53	0
243	269945	54.535676855118	0
243	270894	54.540676855118	0
243	272039	54.545676855118	0
243	273223	54.550676855118	0
243	273780	54.555676855118	0
243	274393	54.560676855118	0
243	275153	54.565676855118	0
243	275827	54.570676855118	0
243	276366	54.575676855118	0
243	276820	54.580676855118	0
243	277564	54.585676855118	0
243	278454	54.593310902027	0
243	278861	54.598310902027	0
243	279247	54.603310902027	0
243	279808	54.608310902027	0
243	280338	54.613310902027	0
243	281334	54.625362287738	0
243	281972	54.630362287738	0
243	282538	54.635362287738	0
243	283064	54.640362287738	0
243	284063	54.650709802915	0
243	284719	54.655709802915	0
243	285334	54.660709802915	0
243	286155	54.665709802915	0
243	286902	54.670709802915	0
243	287266	54.675709802915	0
243	288028	54.682154511413	0
243	288496	54.687154511413	0
243	289178	54.692154511413	0
243	290353	54.709941119297	0
243	290804	54.714941119297	0
243	291346	54.719941119297	0
243	292176	54.730452973443	0
243	292961	54.735452973443	0
243	293439	54.740452973443	0
243	294030	54.745452973443	0
243	294487	54.750452973443	0
243	294861	54.755452973443	0
243	295173	54.760452973443	0
243	295666	54.765452973443	0
243	296109	54.770452973443	0
243	296733	54.775452973443	0
243	297268	54.780452973443	0
243	297490	54.785452973443	0
243	297755	54.790452973443	0
243	298269	54.795452973443	0
243	298340	54.800452973443	0
243	298664	54.827044497198	0
243	298665	54.832044497198	0
243	301023	70.00501	0
243	301027	70.01001	0
243	301613	70.017196020653	0
243	301915	70.022196020653	0
243	302238	70.027196020653	0
243	302239	70.032196020653	0
243	302676	71.00501	0
243	303001	71.01001	0
243	303371	71.01501	0
243	303919	71.02001	0
243	304231	71.02501	0
243	304546	71.03001	0
243	304924	71.03501	0
243	304991	71.04001	0
243	306485	71.116196084874	0
243	306486	71.121196084874	0
243	306914	72.00501	0
243	307230	72.01001	0
243	307689	72.01501	0
243	307845	72.02001	0
243	308467	72.026644068464	0
243	308906	72.031644068464	0
243	308907	72.036644068464	0
243	309504	72.057252097345	0
243	309508	72.062252097345	0
243	309965	73.00501	0
243	310206	73.01001	0
243	310361	73.01501	0
243	310910	73.02004604203	0
243	311216	73.02504604203	0
243	311541	73.03004604203	0
243	312164	73.03504604203	0
243	312480	73.04004604203	0
243	312712	73.04504604203	0
243	312796	73.05004604203	0
243	384043	670.00501	0
243	384418	670.01001	0
243	384777	670.01501	0
243	385012	670.02001	0
243	385236	670.02501	0
243	385336	670.03001	0
243	385776	671.00501	0
243	386098	671.01001	0
243	386467	671.01501	0
243	386716	671.02001	0
243	387151	671.02501	0
243	387152	671.03001	0
243	387829	671.054412067074	0
243	388212	671.059412067074	0
243	388213	671.064412067074	0
243	388831	671.084700080331	0
243	388832	671.089700080331	0
243	389176	672.00501	0
243	389431	672.01001	0
243	389641	672.01501	0
243	390311	672.020356039584	0
243	390312	672.025356039584	0
243	390746	672.048404068464	0
243	391232	672.053404068464	0
243	391376	672.058404068464	0
243	391745	672.078692097345	0
243	391977	672.083692097345	0
243	391978	672.088692097345	0
243	392435	673.00501	0
243	392763	673.01001	0
243	393078	673.01501	0
243	393383	673.02001	0
243	393750	673.02501	0
243	394075	673.03001	0
243	394338	673.03501	0
243	394646	673.04001	0
243	394959	673.04501	0
243	395274	673.05001	0
243	395275	673.05501	0
243	466599	1270.00501	0
243	466894	1270.01001	0
243	467192	1270.01501	0
243	467491	1270.02001	0
243	467495	1270.02501	0
243	467815	1270.032436071682	0
243	467816	1270.037436071682	0
243	468253	1271.00501	0
243	468575	1271.01001	0
243	468886	1271.01501	0
243	469411	1271.02001	0
243	470004	1271.02501	0
243	470250	1271.03001	0
243	470251	1271.03501	0
243	470629	1271.055332096332	0
243	470880	1271.060332096332	0
243	470881	1271.065332096332	0
243	471309	1272.00501	0
243	471625	1272.01001	0
243	472204	1272.01501	0
243	472360	1272.02001	0
243	472961	1272.045204068464	0
243	473267	1272.050204068464	0
243	473335	1272.055204068464	0
243	473656	1272.06134007698	0
243	473903	1272.06634007698	0
243	473904	1272.07134007698	0
243	474193	1273.00501	0
243	474689	1273.01001	0
243	475004	1273.01501	0
243	475306	1273.02001	0
243	475609	1273.02501	0
243	475769	1273.03001	0
243	476289	1273.03501	0
243	476927	1273.04001	0
243	477187	1273.04501	0
243	477188	1273.05001	0
243	548493	1870.00501	0
243	548862	1870.01001	0
243	549163	1870.01501	0
243	549529	1870.02001	0
243	549785	1870.02501	0
243	549786	1870.03001	0
243	550223	1871.00501	0
243	550542	1871.01001	0
243	550760	1871.01501	0
243	551153	1871.02001	0
243	551470	1871.02501	0
243	551785	1871.03001	0
243	552091	1871.03501	0
243	552395	1871.04001	0
243	552708	1871.04501	0
243	552709	1871.05001	0
243	553134	1872.00501	0
243	553450	1872.01001	0
243	553754	1872.01501	0
243	554184	1872.02001	0
243	554505	1872.02501	0
243	554816	1872.03001	0
243	554817	1872.03501	0
243	555423	1872.051564097346	0
243	555730	1872.056564097346	0
243	555734	1872.061564097346	0
243	556030	1872.06844414653	0
243	556031	1872.07344414653	0
243	556320	1873.00501	0
243	556816	1873.01001	0
243	557134	1873.01501	0
243	557503	1873.02001	0
243	557748	1873.02501	0
243	558422	1873.03001	0
243	558993	1873.03501	0
243	559317	1873.04001	0
243	559318	1873.04501	0
243	630642	2470.00501	0
243	630649	2470.01001	0
243	631005	2470.016236020654	0
243	631300	2470.021236020654	0
243	631854	2470.026236020654	0
243	631858	2470.031236020654	0
243	632295	2471.00501	0
243	632617	2471.01001	0
243	632925	2471.01501	0
243	633234	2471.02001	0
243	633609	2471.02501	0
243	633860	2471.03001	0
243	634178	2471.03501	0
243	634489	2471.04001	0
243	634787	2471.04501	0
243	634788	2471.05001	0
243	635132	2472.00501	0
243	635532	2472.01001	0
243	635839	2472.01501	0
243	636207	2472.02001	0
243	636941	2472.02501	0
243	637385	2472.03001	0
243	637453	2472.03501	0
243	637685	2472.040892113556	0
243	637686	2472.045892113556	0
243	638146	2473.00501	0
243	638538	2473.01001	0
243	638786	2473.01501	0
243	638793	2473.02001	0
243	639400	2473.026396055876	0
243	639926	2473.031396055876	0
243	640457	2473.036396055876	0
243	640954	2473.041396055876	0
243	640955	2473.046396055876	0
243	712589	3070.00501	0
243	712593	3070.01001	0
243	712952	3070.016876020653	0
243	713394	3070.021876020653	0
243	713804	3070.026876020653	0
243	713805	3070.031876020653	0
243	714245	3071.00501	0
243	714631	3071.01001	0
243	715029	3071.01501	0
243	715620	3071.02001	0
243	715621	3071.02501	0
243	716237	3071.048012067074	0
243	716554	3071.053012067074	0
243	716872	3071.058012067074	0
243	716873	3071.063012067074	0
243	717217	3072.00501	0
243	717611	3072.01001	0
243	717918	3072.01501	0
243	718229	3072.02001	0
243	718531	3072.02501	0
243	718900	3072.03001	0
243	719450	3072.03501	0
243	719764	3072.04001	0
243	719765	3072.04501	0
243	720119	3073.00501	0
243	720550	3073.01001	0
243	720868	3073.01501	0
243	721238	3073.02001	0
243	721781	3073.02501	0
243	722313	3073.03001	0
243	723047	3073.03501	0
243	723051	3073.04001	0
243	794436	3670.00501	0
243	794728	3670.01001	0
243	795023	3670.01501	0
243	795325	3670.02001	0
243	795393	3670.02501	0
243	795649	3670.030196071682	0
243	795650	3670.035196071682	0
243	796090	3671.00501	0
243	796412	3671.01001	0
243	796717	3671.01501	0
243	797331	3671.02001	0
243	797837	3671.02501	0
243	798311	3671.03001	0
243	798398	3671.03501	0
243	798712	3671.052132080331	0
243	798713	3671.057132080331	0
243	799141	3672.00501	0
243	799457	3672.01001	0
243	799761	3672.01501	0
243	800194	3672.02001	0
243	800195	3672.02501	0
243	800562	3672.044884068464	0
243	801120	3672.049884068464	0
243	801490	3672.054884068464	0
243	801737	3672.059884068464	0
243	801738	3672.064884068464	0
243	802198	3673.00501	0
243	802590	3673.01001	0
243	802905	3673.01501	0
243	803449	3673.02001	0
243	804208	3673.02501	0
243	804752	3673.03001	0
243	805012	3673.03501	0
243	805013	3673.04001	0
243	876195	4270.00501	0
243	876629	4270.01001	0
243	876924	4270.01501	0
243	877232	4270.02001	0
243	877552	4270.02501	0
243	877553	4270.03001	0
243	877990	4271.00501	0
243	878315	4271.01001	0
243	878684	4271.01501	0