version 2
run AODVScenario_1f-22-20121115-23:58:10-1500
attr configname AODVScenario_1f
attr datetime 20121115-23:58:10
attr experiment AODVScenario_1f
attr inifile AODV.ini
attr iterationvars $numNodes=72
attr iterationvars2 "$numNodes=72, $repetition=0"
attr measurement $numNodes=72
attr network csma802154net
attr numNodes 72
attr processid 1500
attr repetition 0
attr replication #0
attr resultdir results
attr runnumber 22
attr seedset 22

vector 299  csma802154net.dataCentricNetworkMan  RREQPacketFrequency  ETV
vector 300  csma802154net.dataCentricNetworkMan  RERRPacketFrequency  ETV
vector 301  csma802154net.dataCentricNetworkMan  DiscoveryPacketFrequency  ETV
vector 302  csma802154net.dataCentricNetworkMan  RegisterPacketFrequency  ETV
vector 303  csma802154net.dataCentricNetworkMan  RReplyPacketFrequency  ETV
vector 304  csma802154net.dataCentricNetworkMan  AODVDataPacketFrequency  ETV
vector 311  csma802154net.dataCentricNetworkMan  pendingRegistrationVector  ETV
vector 310  csma802154net.dataCentricNetworkMan  pendingRREQVector  ETV
vector 308  csma802154net.dataCentricNetworkMan  PendingDataPacketsVector  ETV
vector 321  csma802154net.fixhost[9].udpApp  "End-to-end delay"  ETV
vector 296  csma802154net.dataCentricNetworkMan  dataPacketE2EDelay  ETV
vector 331  csma802154net.fixhost[19].udpApp  "End-to-end delay"  ETV
vector 332  csma802154net.fixhost[20].udpApp  "End-to-end delay"  ETV
vector 318  csma802154net.fixhost[6].udpApp  "End-to-end delay"  ETV
vector 324  csma802154net.fixhost[12].udpApp  "End-to-end delay"  ETV
vector 319  csma802154net.fixhost[7].udpApp  "End-to-end delay"  ETV
vector 315  csma802154net.fixhost[3].udpApp  "End-to-end delay"  ETV
vector 316  csma802154net.fixhost[4].udpApp  "End-to-end delay"  ETV
vector 317  csma802154net.fixhost[5].udpApp  "End-to-end delay"  ETV
vector 329  csma802154net.fixhost[17].udpApp  "End-to-end delay"  ETV
vector 335  csma802154net.fixhost[23].udpApp  "End-to-end delay"  ETV
vector 336  csma802154net.fixhost[24].udpApp  "End-to-end delay"  ETV
296	488234	70.008676015742	0.008676015742
296	488604	70.012476033725	0.012476033725
296	488975	70.016276051976	0.016276051976
296	491399	71.027404059007	0.027404059007
296	491773	71.03404411103	0.03404411103
296	492137	71.040236090688	0.040236090688
296	494214	72.022284047179	0.022284047179
296	494595	72.024556061052	0.024556061052
296	494975	72.026724069407	0.026724069407
296	498592	73.04179608799	0.04179608799
296	499514	73.053092129678	0.053092129678
296	500630	73.072220144267	0.072220144267
296	589536	670.007396015743	0.007396015743
296	589906	670.011196033726	0.011196033726
296	590277	670.015636051977	0.015636051977
296	592323	671.019156059006	0.019156059006
296	592844	671.021676090688	0.021676090688
296	593611	671.04908411103	0.04908411103
296	595667	672.018796061052	0.018796061052
296	596051	672.020684047179	0.020684047179
296	596425	672.023204069407	0.023204069407
296	599436	673.034396118053	0.034396118053
296	600557	673.049924160633	0.049924160633
296	601673	673.062444144267	0.062444144267
296	690579	1270.009316015742	0.009316015742
296	690949	1270.012796033725	0.012796033725
296	691320	1270.017876051976	0.017876051976
296	692992	1271.016596059008	0.016596059008
296	693909	1271.047204090689	0.047204090689
296	694672	1271.05509211103	0.05509211103
296	696349	1272.019156047178	0.019156047178
296	697103	1272.028324061051	0.028324061051
296	697486	1272.032164069406	0.032164069406
296	700776	1273.039156144269	0.039156144269
296	702399	1273.082812160634	0.082812160634
296	702769	1273.089788118055	0.089788118055
296	791740	1870.007716015742	0.007716015742
296	792110	1870.012796033725	0.012796033725
296	792481	1870.018196051976	0.018196051976
296	794154	1871.016596059008	0.016596059008
296	794897	1871.025764090689	0.025764090689
296	795659	1871.033404111031	0.033404111031
296	797339	1872.015636047178	0.015636047178
296	798092	1872.021604061051	0.021604061051
296	798471	1872.024164069406	0.024164069406
296	801095	1873.02899608799	0.02899608799
296	803154	1873.062692129679	0.062692129679
296	803896	1873.088540144268	0.088540144268
296	892802	2470.009316015743	0.009316015743
296	893172	2470.014076033726	0.014076033726
296	893543	2470.019476051977	0.019476051977
296	895216	2471.019156059008	0.019156059008
296	896338	2471.032732090689	0.032732090689
296	896726	2471.035964111031	0.035964111031
296	898403	2472.015316047179	0.015316047179
296	899160	2472.025124061052	0.025124061052
296	900096	2472.051612069405	0.051612069405
296	902954	2473.029564087991	0.029564087991
296	904470	2473.042852144269	0.042852144269
296	905214	2473.057748129681	0.057748129681
296	994104	3070.009956015743	0.009956015743
296	994474	3070.013436033726	0.013436033726
296	994845	3070.017876051977	0.017876051977
296	996518	3071.017876059008	0.017876059008
296	997265	3071.027684090688	0.027684090688
296	998028	3071.03973211103	0.03973211103
296	999704	3072.019796047179	0.019796047179
296	1000455	3072.025196069407	0.025196069407
296	1000837	3072.027684061052	0.027684061052
296	1004459	3073.04012408799	0.04012408799
296	1005380	3073.04733212968	0.04733212968
296	1006486	3073.074780144268	0.074780144268
296	1095464	3670.007076015743	0.007076015743
296	1095834	3670.011516033726	0.011516033726
296	1096205	3670.016276051977	0.016276051977
296	1097878	3671.017556059008	0.017556059008
296	1098624	3671.025444090689	0.025444090689
296	1099383	3671.03340411103	0.03340411103
296	1101436	3672.022316069407	0.022316069407
296	1101825	3672.027684061052	0.027684061052
296	1102764	3672.060860047178	0.060860047178
296	1106549	3673.037596118053	0.037596118053
296	1106918	3673.041964144268	0.041964144268
296	1108976	3673.092980160634	0.092980160634
296	1197866	4270.008356015742	0.008356015742
296	1198236	4270.013116033725	0.013116033725
296	1198607	4270.018516051976	0.018516051976
296	1200810	4271.021356090688	0.021356090688
296	1201566	4271.044612059006	0.044612059006
296	1202314	4271.05381211103	0.05381211103
296	1204368	4272.018444047176	0.018444047176
296	1204746	4272.020396069406	0.020396069406
296	1205127	4272.022884061051	0.022884061051
296	1208155	4273.027996118054	0.027996118054
296	1209275	4273.040324160632	0.040324160632
296	1210395	4273.063972144267	0.063972144267
296	1299301	4870.009316015743	0.009316015743
296	1299671	4870.013116033726	0.013116033726
296	1300042	4870.017556051977	0.017556051977
296	1302169	4871.019404059008	0.019404059008
296	1302622	4871.025444090689	0.025444090689
296	1303386	4871.047804111031	0.047804111031
296	1305063	4872.017556047179	0.017556047179
296	1305817	4872.027684069407	0.027684069407
296	1306202	4872.033052061051	0.033052061051
296	1308676	4873.025796087991	0.025796087991
296	1310545	4873.040364129681	0.040364129681
296	1311285	4873.047332144269	0.047332144269
296	1400263	5470.007076015743	0.007076015743
296	1400633	5470.011196033726	0.011196033726
296	1401004	5470.016596051977	0.016596051977
296	1403052	5471.020116059007	0.020116059007
296	1404152	5471.05157211103	0.05157211103
296	1404512	5471.053532090687	0.053532090687
296	1406589	5472.020364047179	0.020364047179
296	1406967	5472.022564069407	0.022564069407
296	1407352	5472.029284061052	0.029284061052
296	1409978	5473.029956087991	0.029956087991
296	1412244	5473.067172129679	0.067172129679
296	1412600	5473.069412144269	0.069412144269
296	1501506	6070.008676015742	0.008676015742
296	1501876	6070.013756033725	0.013756033725
296	1502247	6070.018836051976	0.018836051976
296	1504304	6071.021036090688	0.021036090688
296	1505232	6071.02956411103	0.02956411103
296	1505973	6071.048452059007	0.048452059007
296	1508032	6072.023244047178	0.023244047178
296	1508410	6072.025516069406	0.025516069406
296	1508795	6072.028964061051	0.028964061051
296	1511652	6073.031516118055	0.031516118055
296	1512958	6073.041964144269	0.041964144269
296	1514458	6073.074812160635	0.074812160635
296	1603349	6670.012516015743	0.012516015743
296	1603718	6670.016956033726	0.016956033726
296	1604089	6670.020436051977	0.020436051977
296	1605918	6671.016276059008	0.016276059008
296	1606669	6671.044324090689	0.044324090689
296	1607432	6671.052212111031	0.052212111031
296	1609481	6672.022996047179	0.022996047179
296	1609863	6672.026084069407	0.026084069407
296	1610247	6672.029604061052	0.029604061052
296	1612889	6673.027716087991	0.027716087991
296	1614571	6673.06621212968	0.06621212968
296	1615692	6673.097108144269	0.097108144269
296	1704670	7270.008356015743	0.008356015743
296	1705040	7270.011836033726	0.011836033726
296	1705411	7270.016916051977	0.016916051977
296	1707087	7271.017876059007	0.017876059007
296	1707826	7271.024484090688	0.024484090688
296	1708589	7271.03212411103	0.03212411103
296	1710644	7272.017484047179	0.017484047179
296	1711026	7272.019756061052	0.019756061052
296	1711410	7272.028252069407	0.028252069407
296	1713960	7273.032196087989	0.032196087989
296	1716477	7273.07862012968	0.07862012968
296	1716843	7273.094300144268	0.094300144268
299	578	1.005	1
299	890	1.01	38
299	1479	1.015	30
299	2543	1.02	60
299	4155	1.025	75
299	5650	1.03	53
299	6945	1.035	41
299	7964	1.04	62
299	8921	1.045	34
299	9859	1.05	46
299	10397	1.055	32
299	11244	1.06	64
299	11888	1.065	59
299	12259	1.07	22
299	12675	1.075	36
299	12970	1.08	13
299	13366	1.085	35
299	13655	1.09	28
299	13656	1.095	0
299	14236	1.103905852535	57
299	14318	1.108905852535	0
299	14515	1.113970404221	27
299	14848	1.118970404221	19
299	15099	1.123970404221	20
299	15362	1.128970404221	23
299	15569	1.133970404221	28
299	15570	1.138970404221	0
299	15848	1.155821029546	27
299	15858	1.160821029546	0
299	16300	1.168960523216	30
299	16301	1.173960523216	0
299	16544	1.249152423856	19
299	16545	1.254152423856	0
299	22810	43.505	1
299	23102	43.51	22
299	23902	43.515	0
299	24628	43.52	0
299	25998	43.531839495658	0
299	26648	43.536839495658	0
299	27173	43.541839495658	0
299	27974	43.548688354455	0
299	28919	43.553688354455	0
299	29169	43.558688354455	0
299	29874	43.564276972598	0
299	30499	43.569276972598	0
299	31176	43.574276972598	0
299	32047	43.579276972598	0
299	32645	43.584276972598	0
299	32992	43.589276972598	0
299	33588	43.594276972598	0
299	34204	43.599276972598	0
299	34889	43.604276972598	0
299	35482	43.609276972598	0
299	35882	43.614276972598	0
299	36335	43.619276972598	0
299	36791	43.624276972598	0
299	37306	43.629276972598	0
299	38629	43.644586619254	0
299	39398	43.649586619254	0
299	40071	43.654586619254	0
299	40534	43.659586619254	0
299	41976	43.682555663512	0
299	42149	43.687555663512	0
299	42600	43.692987652998	0
299	43114	43.697987652998	0
299	43545	43.702987652998	0
299	43962	43.707987652998	0
299	44815	43.716595772717	0
299	45288	43.721595772717	0
299	46125	43.734374422654	0
299	46474	43.739374422654	0
299	46814	43.744374422654	0
299	47663	43.751685790395	0
299	47835	43.756685790395	0
299	48851	43.768851680973	0
299	49193	43.773851680973	0
299	49526	43.778851680973	0
299	49877	43.783851680973	0
299	49959	43.788851680973	0
299	50561	43.807930671028	0
299	50562	43.812930671028	0
299	50714	44.505	1
299	50721	44.51	0
299	51640	44.518656394288	22
299	52818	44.523656394288	0
299	53961	44.528656394288	0
299	54805	44.533656394288	0
299	55462	44.538656394288	0
299	56469	44.545496798509	0
299	57100	44.550496798509	0
299	57853	44.555496798509	0
299	58458	44.560496798509	0
299	59376	44.565496798509	0
299	60063	44.570496798509	0
299	60675	44.575496798509	0
299	61322	44.580496798509	0
299	62106	44.585526513073	0
299	62757	44.590526513073	0
299	63208	44.595526513073	0
299	63623	44.600526513073	0
299	64470	44.607984981978	0
299	65143	44.612984981978	0
299	65730	44.617984981978	0
299	66362	44.622984981978	0
299	67367	44.629794174546	0
299	67876	44.634794174546	0
299	68461	44.639794174546	0
299	68725	44.644794174546	0
299	69158	44.649794174546	0
299	69752	44.654794174546	0
299	70699	44.668699357184	0
299	70798	44.673699357184	0
299	71994	44.685101093126	0
299	72349	44.690101093126	0
299	72688	44.695101093126	0
299	73043	44.700101093126	0
299	73381	44.705101093126	0
299	73988	44.712822268246	0
299	74592	44.717822268246	0
299	74593	44.722822268246	0
299	74680	44.728297427317	0
299	75209	44.733297427317	0
299	75381	44.738297427317	0
299	75656	44.744443442638	0
299	75657	44.749443442638	0
299	76007	44.777006310881	0
299	76008	44.782006310881	0
299	76349	44.804621098026	0
299	76350	44.809621098026	0
299	77044	44.854950329991	0
299	77045	44.859950329991	0
299	77197	45.505	1
299	77285	45.51	0
299	78084	45.516503998353	24
299	78994	45.521503998353	0
299	79707	45.526503998353	0
299	80343	45.531503998353	0
299	81291	45.536503998353	0
299	81980	45.541503998353	0
299	82617	45.546503998353	0
299	83644	45.553291444038	0
299	84474	45.558291444038	0
299	85182	45.563291444038	0
299	85712	45.568291444038	0
299	86227	45.573291444038	0
299	86731	45.578291444038	0
299	87414	45.58612089715	0
299	88205	45.59112089715	0
299	88764	45.59612089715	0
299	89734	45.60112089715	0
299	90915	45.609515993198	0
299	91782	45.614515993198	0
299	92129	45.619515993198	0
299	92751	45.624515993198	0
299	93199	45.629515993198	0
299	93810	45.634515993198	0
299	94403	45.639515993198	0
299	94916	45.644515993198	0
299	95926	45.651556110504	0
299	96300	45.656556110504	0
299	96723	45.661556110504	0
299	96999	45.666556110504	0
299	97342	45.671556110504	0
299	98730	45.684293798205	0
299	99186	45.689293798205	0
299	100406	45.706621743257	0
299	101034	45.711621743257	0
299	101375	45.716621743257	0
299	101893	45.721621743257	0
299	102327	45.726621743257	0
299	103318	45.738324582149	0
299	103684	45.743324582149	0
299	104273	45.748324582149	0
299	104704	45.759253313186	0
299	104705	45.764253313186	0
299	105580	45.781116031036	0
299	105932	45.786116031036	0
299	106292	45.79355848243	0
299	106807	45.79855848243	0
299	106808	45.80355848243	0
299	107678	45.849182187333	0
299	107679	45.854182187333	0
299	108117	46.505	22
299	109237	46.51	0
299	110204	46.515	0
299	111221	46.52	0
299	111879	46.525	0
299	112601	46.53	0
299	113201	46.535	0
299	114181	46.541540410263	0
299	114713	46.546540410263	0
299	115515	46.551540410263	0
299	116284	46.556540410263	0
299	117058	46.561540410263	0
299	117723	46.566540410263	0
299	119049	46.577025390657	0
299	119465	46.582025390657	0
299	120375	46.590154360231	0
299	121040	46.595154360231	0
299	121827	46.600154360231	0
299	122371	46.605154360231	0
299	122969	46.610154360231	0
299	123324	46.615154360231	0
299	124309	46.623190162295	0
299	124994	46.628190162295	0
299	125430	46.633190162295	0
299	125780	46.638190162295	0
299	126520	46.643222605188	0
299	127157	46.648222605188	0
299	127757	46.653222605188	0
299	128027	46.658222605188	0
299	128557	46.663222605188	0
299	128976	46.668222605188	0
299	129456	46.673222605188	0
299	129897	46.678222605188	0
299	130251	46.684854186027	0
299	130531	46.689854186027	0
299	130876	46.694854186027	0
299	130877	46.699854186027	0
299	131672	46.713160021734	0
299	131929	46.718160021734	0
299	131933	46.723160021734	0
299	132483	46.730628928159	0
299	132735	46.735628928159	0
299	133175	47.505	1
299	134104	47.51	33
299	135693	47.515	0
299	137052	47.52	0
299	138235	47.525	0
299	138782	47.53	0
299	139490	47.535	0
299	141529	47.545220583753	0
299	142365	47.550220583753	0
299	143578	47.555220583753	0
299	144242	47.560220583753	0
299	144984	47.565564954803	0
299	146428	47.570564954803	0
299	147167	47.575564954803	0
299	148066	47.581705194171	0
299	148728	47.586705194171	0
299	150595	47.598529205959	0
299	151330	47.603529205959	0
299	151980	47.608529205959	0
299	153387	47.616734496367	0
299	154431	47.621734496367	0
299	155050	47.626734496367	0
299	155872	47.63196995319	0
299	156812	47.63696995319	0
299	157430	47.64196995319	0
299	158688	47.650431433255	0
299	159601	47.655431433255	0
299	160385	47.660431433255	0
299	161374	47.665431433255	0
299	161910	47.670431433255	0
299	164418	47.690735942847	0
299	165159	47.695735942847	0
299	165969	47.700735942847	0
299	166833	47.705735942847	0
299	167554	47.712112228627	0
299	167826	47.717112228627	0
299	168902	47.722328326553	0
299	169723	47.727328326553	0
299	170549	47.732328326553	0
299	171248	47.737328326553	0
299	171977	47.742328326553	0
299	172548	47.747328326553	0
299	173241	47.752328326553	0
299	173779	47.757328326553	0
299	174810	47.765556261434	0
299	175086	47.770556261434	0
299	175922	47.777786251517	0
299	176696	47.782786251517	0
299	177433	47.787786251517	0
299	177886	47.792786251517	0
299	178644	47.797786251517	0
299	179074	47.802786251517	0
299	179714	47.807786251517	0
299	179715	47.812786251517	0
299	180542	47.822699877476	0
299	181173	47.827699877476	0
299	181525	47.832699877476	0
299	181607	47.837699877476	0
299	181893	47.843019944514	0
299	181977	47.848019944514	0
299	182426	47.853019944514	0
299	182508	47.858019944514	0
299	182783	47.86464397047	0
299	182784	47.86964397047	0
299	183142	47.880893903366	0
299	183143	47.885893903366	0
299	183587	47.908899954964	0
299	183859	47.913899954964	0
299	184205	47.918899954964	0
299	184444	48.505	1
299	184939	48.51	16
299	185981	48.515	0
299	186690	48.52	0
299	187469	48.525	0
299	187926	48.53	0
299	188658	48.535	0
299	189411	48.54	0
299	190190	48.545	0
299	190858	48.55	0
299	191558	48.558482501562	0
299	191737	48.563482501562	0
299	192331	48.568482501562	0
299	193074	48.573821946361	0
299	193425	48.578821946361	0
299	194659	48.586906694176	0
299	194835	48.591906694176	0
299	195360	48.5976971959	0
299	195859	48.6026971959	0
299	196572	48.608552916212	0
299	197336	48.613552916212	0
299	197605	48.618552916212	0
299	198884	48.629682720665	0
299	199292	48.634682720665	0
299	201185	48.65289502885	0
299	201733	48.65789502885	0
299	202356	48.66289502885	0
299	202954	48.66789502885	0
299	204097	48.680116794453	0
299	204369	48.685116794453	0
299	204372	48.690116794453	0
299	205079	48.699021681443	0
299	205332	48.704021681443	0
299	205964	48.71391105542	0
299	205965	48.71891105542	0
299	206304	48.730849220109	0
299	206305	48.735849220109	0
299	206479	49.505	1
299	206489	49.51	0
299	208305	49.517956256163	32
299	209586	49.522956256163	0
299	210495	49.527956256163	0
299	211850	49.538321188002	0
299	212433	49.543321188002	0
299	213147	49.548321188002	0
299	214162	49.554531746043	0
299	214888	49.559531746043	0
299	215615	49.564531746043	0
299	216623	49.569968060206	0
299	217504	49.574968060206	0
299	218110	49.579968060206	0
299	219298	49.588294276838	0
299	220186	49.593294276838	0
299	220929	49.598294276838	0
299	221865	49.603294276838	0
299	222918	49.608551077303	0
299	223379	49.613551077303	0
299	224099	49.618551077303	0
299	225078	49.623551077303	0
299	226161	49.628551077303	0
299	227122	49.633551077303	0
299	227766	49.638551077303	0
299	228587	49.645597133483	0
299	229201	49.650597133483	0
299	231080	49.66579776537	0
299	231799	49.67079776537	0
299	232948	49.67839029863	0
299	233395	49.68339029863	0
299	234208	49.689428140531	0
299	234886	49.694428140531	0
299	235596	49.699428140531	0
299	236172	49.704428140531	0
299	237196	49.711157716349	0
299	238143	49.716157716349	0
299	238577	49.721157716349	0
299	239554	49.728273755858	0
299	240011	49.733273755858	0
299	240444	49.738375819077	0
299	240973	49.743375819077	0
299	241874	49.748375819077	0
299	242770	49.753375819077	0
299	243292	49.758375819077	0
299	243992	49.764194383014	0
299	244483	49.769194383014	0
299	244945	49.774194383014	0
299	245492	49.779194383014	0
299	246292	49.784194383014	0
299	247068	49.789194383014	0
299	247362	49.794194383014	0
299	247722	49.799194383014	0
299	248187	49.804194383014	0
299	248901	49.809194383014	0
299	249615	49.814194383014	0
299	250262	49.819413573414	0
299	250799	49.824413573414	0
299	250885	49.829413573414	0
299	251758	49.835277598052	0
299	251853	49.840277598052	0
299	252574	49.854009835223	0
299	253205	49.859009835223	0
299	253733	49.864009835223	0
299	254185	49.869395501772	0
299	254384	49.874395501772	0
299	254931	49.894939808766	0
299	255119	49.899939808766	0
299	255488	49.940349612117	0
299	255570	49.945349612117	0
299	255863	49.95095550845	0
299	255864	49.95595550845	0
299	256612	49.9790755187	0
299	256613	49.9840755187	0
299	256796	50.505	1
299	257399	50.51	36
299	259146	50.515	0
299	260411	50.52	0
299	261963	50.525	0
299	263028	50.53159500201	0
299	263898	50.53659500201	0
299	264533	50.54159500201	0
299	265432	50.54659500201	0
299	266753	50.55159500201	0
299	267685	50.55659500201	0
299	268399	50.56159500201	0
299	270785	50.574441772995	0
299	271659	50.579441772995	0
299	272419	50.584441772995	0
299	273391	50.589441772995	0
299	274351	50.594441772995	0
299	275532	50.60122764944	0
299	276193	50.60622764944	0
299	276762	50.61122764944	0
299	277993	50.61622764944	0
299	280308	50.630689982434	0
299	281063	50.635689982434	0
299	282425	50.643483394945	0
299	283223	50.648483394945	0
299	284609	50.658984150775	0
299	285181	50.663984150775	0
299	287620	50.679835410829	0
299	288069	50.684835410829	0
299	289849	50.696014689555	0
299	290646	50.701014689555	0
299	291559	50.706014689555	0
299	292212	50.711014689555	0
299	292927	50.716014689555	0
299	293978	50.721014689555	0
299	294675	50.726014689555	0
299	296019	50.7388630984	0
299	296652	50.7438630984	0
299	297142	50.7488630984	0
299	298093	50.7538630984	0
299	298577	50.7588630984	0
299	299354	50.7638630984	0
299	300281	50.7688630984	0
299	301109	50.7738630984	0
299	301780	50.7788630984	0
299	302574	50.7838630984	0
299	303493	50.78915239836	0
299	304445	50.79415239836	0
299	305200	50.79915239836	0
299	305667	50.80415239836	0
299	305987	50.80915239836	0
299	306654	50.81415239836	0
299	307436	50.81915239836	0
299	308137	50.82415239836	0
299	309049	50.833210753049	0
299	309054	50.838210753049	0
299	309592	50.844155972473	0
299	310037	50.849155972473	0
299	310708	50.8558897657	0
299	311338	50.8608897657	0
299	311433	50.8658897657	0
299	312345	50.87449161846	0
299	312346	50.87949161846	0
299	313420	50.890417109564	0
299	313791	50.895417109564	0
299	314169	50.900417109564	0
299	314170	50.905417109564	0
299	314539	50.916609469919	0
299	314905	50.921609469919	0
299	315266	50.969216704988	0
299	315267	50.974216704988	0
299	315530	51.505	1
299	316515	51.51	37
299	318117	51.515	0
299	319109	51.52	0
299	320027	51.525	0
299	320592	51.53	0
299	321178	51.535	0
299	322245	51.54	0
299	324370	51.552537914892	0
299	324927	51.557537914892	0
299	328042	51.578023342148	0
299	329121	51.583023342148	0
299	331884	51.599838317924	0
299	332603	51.604838317924	0
299	334275	51.614951747464	0
299	335176	51.619951747464	0
299	339137	51.650119495849	0
299	339613	51.655119495849	0
299	340717	51.662090752053	0
299	341517	51.667090752053	0
299	344820	51.686032314927	0
299	345283	51.691032314927	0
299	347045	51.703372302208	0
299	348184	51.708372302208	0
299	348892	51.713372302208	0
299	350259	51.7224953601	0
299	350841	51.7274953601	0
299	351840	51.7324953601	0
299	353131	51.7374953601	0
299	353795	51.7424953601	0
299	354623	51.7474953601	0
299	355727	51.754717166161	0
299	356525	51.759717166161	0
299	357093	51.764717166161	0
299	357911	51.769866333147	0
299	358583	51.774866333147	0
299	359167	51.779866333147	0
299	360254	51.784866333147	0
299	361110	51.789866333147	0
299	361860	51.794866333147	0
299	362860	51.799866333147	0
299	363684	51.804866333147	0
299	364400	51.809866333147	0
299	365222	51.814866333147	0
299	365836	51.819866333147	0
299	366401	51.824866333147	0
299	366796	51.829866333147	0
299	367347	51.834866333147	0
299	368103	51.839866333147	0
299	368496	51.844866333147	0
299	369139	51.849866333147	0
299	369514	51.854866333147	0
299	370174	51.86030374781	0
299	370763	51.86530374781	0
299	371315	51.87030374781	0
299	372079	51.87530374781	0
299	372648	51.88030374781	0
299	373192	51.88530374781	0
299	374235	51.890559668488	0
299	374244	51.895559668488	0
299	374615	51.903625514035	0
299	374703	51.908625514035	0
299	376139	51.920205517179	0
299	376519	51.925205517179	0
299	377273	51.930205517179	0
299	377363	51.935205517179	0
299	378181	51.965486240069	0
299	378182	51.970486240069	0
299	378637	51.984078668461	0
299	379104	51.989078668461	0
299	379105	51.994078668461	0
299	379636	52.017182608959	0
299	379637	52.022182608959	0
299	379752	52.505	1
299	380304	52.51	20
299	381316	52.515	0
299	382044	52.52	0
299	382669	52.525	0
299	383417	52.53	0
299	384292	52.535	0
299	385101	52.54	0
299	385956	52.545	0
299	386762	52.55	0
299	387063	52.555	0
299	388041	52.56	0
299	388755	52.565	0
299	389668	52.57	0
299	390499	52.575	0
299	391279	52.58	0
299	392008	52.585	0
299	392378	52.59	0
299	392932	52.595	0
299	393646	52.6	0
299	394084	52.605	0
299	395187	52.614101285983	0
299	395714	52.619101285983	0
299	396178	52.624101285983	0
299	397106	52.629426849023	0
299	397520	52.634426849023	0
299	398454	52.642714144553	0
299	399091	52.647714144553	0
299	399881	52.652714144553	0
299	400329	52.657714144553	0
299	401012	52.665428846053	0
299	401571	52.670428846053	0
299	402719	52.678223315162	0
299	403471	52.683223315162	0
299	404013	52.688223315162	0
299	404722	52.693223315162	0
299	405308	52.698223315162	0
299	405775	52.703223315162	0
299	406073	52.708223315162	0
299	406798	52.713223315162	0
299	408220	52.734621300299	0
299	409050	52.739621300299	0
299	409581	52.744621300299	0
299	411216	52.768333254541	0
299	411693	52.773333254541	0
299	412382	52.778333254541	0
299	412823	52.783333254541	0
299	413479	52.79188039257	0
299	413480	52.79688039257	0
299	413845	52.839196557961	0
299	413846	52.844196557961	0
299	414208	52.86306057988	0
299	414209	52.86806057988	0
299	414394	53.505	1
299	414407	53.51	0
299	415253	53.516962896842	12
299	415788	53.521962896842	0
299	416705	53.527462833425	0
299	417150	53.532462833425	0
299	417988	53.537462833425	0
299	418365	53.542462833425	0
299	418949	53.547462833425	0
299	419538	53.552462833425	0
299	420275	53.557462833425	0
299	420580	53.562462833425	0
299	421085	53.567462833425	0
299	421931	53.572462833425	0
299	422505	53.577462833425	0
299	423309	53.582462833425	0
299	424918	53.60439959752	0
299	425270	53.60939959752	0
299	426785	53.628178108563	0
299	427066	53.633178108563	0
299	428232	53.644574884714	0
299	429400	53.649574884714	0
299	430647	53.664871736767	0
299	430910	53.669871736767	0
299	432145	53.685037638145	0
299	432791	53.690037638145	0
299	433179	53.695037638145	0
299	433714	53.700037638145	0
299	434640	53.705037638145	0
299	435007	53.710037638145	0
299	435008	53.715037638145	0
299	435734	53.807960527884	0
299	436121	53.812960527884	0
299	436122	53.817960527884	0
299	436377	54.505	1
299	437240	54.51	29
299	438620	54.515	0
299	439694	54.52	0
299	440703	54.525	0
299	441295	54.53	0
299	441842	54.535	0
299	443621	54.544412471991	0
299	444851	54.549412471991	0
299	446227	54.554412471991	0
299	446980	54.559412471991	0
299	447927	54.564412471991	0
299	448636	54.569412471991	0
299	450041	54.578573454616	0
299	450947	54.583573454616	0
299	451580	54.588573454616	0
299	452340	54.595279208679	0
299	452840	54.600279208679	0
299	453311	54.605279208679	0
299	454358	54.610279208679	0
299	454919	54.615279208679	0
299	457907	54.638138853938	0
299	458688	54.643138853938	0
299	460169	54.652825556533	0
299	461003	54.657825556533	0
299	461483	54.662825556533	0
299	462229	54.667825556533	0
299	462681	54.672825556533	0
299	464451	54.688229562662	0
299	465027	54.693229562662	0
299	465761	54.698229562662	0
299	466700	54.703229562662	0
299	467367	54.708229562662	0
299	467929	54.713229562662	0
299	468846	54.718229562662	0
299	469121	54.723229562662	0
299	470766	54.734798279507	0
299	471769	54.739798279507	0
299	472678	54.744798279507	0
299	473988	54.756637079487	0
299	474846	54.761637079487	0
299	475672	54.766637079487	0
299	476469	54.771637079487	0
299	476960	54.776637079487	0
299	477623	54.781637079487	0
299	478184	54.786637079487	0
299	478671	54.791637079487	0
299	479373	54.796637079487	0
299	480048	54.801637079487	0
299	480594	54.806637079487	0
299	480676	54.811637079487	0
299	481071	54.81734375775	0
299	481511	54.82234375775	0
299	481778	54.82734375775	0
299	483678	54.845430317447	0
299	483966	54.850430317447	0
299	484341	54.872518478034	0
299	484342	54.877518478034	0
299	484720	54.892620240496	0
299	484721	54.897620240496	0
299	485101	54.9089212537	0
299	485102	54.9139212537	0
299	487947	70.00501	0
299	488421	70.01001	0
299	488795	70.01501	0
299	489159	70.02001	0
299	489160	70.02501	0
299	489694	71.00501	0
299	489698	71.01001	0
299	490459	71.016566031664	0
299	490834	71.021566031664	0
299	491294	71.026566031664	0
299	491583	71.031566031664	0
299	491947	71.036566031664	0
299	492332	71.041566031664	0
299	492333	71.046566031664	0
299	492867	72.00501	0
299	493170	72.01001	0
299	493353	72.01501	0
299	494018	72.020036031307	0
299	494675	72.025036031307	0
299	495170	72.030036031307	0
299	495171	72.035036031307	0
299	495691	73.00501	0
299	495959	73.01001	0
299	496075	73.01501	0
299	496552	73.022286042681	0
299	496938	73.027286042681	0
299	497625	73.032286042681	0
299	498090	73.037286042681	0
299	498746	73.042286042681	0
299	499326	73.047286042681	0
299	499408	73.052286042681	0
299	499685	73.058092129678	0
299	499690	73.063092129678	0
299	500814	73.072780134472	0
299	500818	73.077780134472	0
299	589353	670.00501	0
299	589801	670.01001	0
299	590172	670.01501	0
299	590461	670.02001	0
299	590462	670.02501	0
299	590885	671.00501	0
299	591394	671.01001	0
299	591764	671.01501	0
299	592504	671.02001	0
299	593042	671.02501	0
299	593043	671.03001	0
299	593785	671.049964099778	0
299	593786	671.054964099778	0
299	594323	672.00501	0
299	594727	672.01001	0
299	595180	672.01501	0
299	595940	672.02001	0
299	596620	672.02501	0
299	596621	672.03001	0
299	596960	673.00501	0
299	597145	673.01001	0
299	597920	673.016876027649	0
299	598299	673.021876027649	0
299	598688	673.026876027649	0
299	599236	673.031876027649	0
299	599616	673.036876027649	0
299	599996	673.041876027649	0
299	600366	673.046876027649	0
299	600806	673.051876027649	0
299	601184	673.056876027649	0
299	601565	673.061876027649	0
299	601860	673.066876027649	0
299	601861	673.071876027649	0
299	690213	1270.00501	0
299	690760	1270.01001	0
299	691134	1270.01501	0
299	691504	1270.02001	0
299	691505	1270.02501	0
299	692039	1271.00501	0
299	692437	1271.01001	0
299	692807	1271.01501	0
299	693342	1271.02001	0
299	693343	1271.02501	0