version 2
run AODVScenario_1f-75-20121116-00:30:01-184
attr configname AODVScenario_1f
attr datetime 20121116-00:30:01
attr experiment AODVScenario_1f
attr inifile AODV.ini
attr iterationvars $numNodes=125
attr iterationvars2 "$numNodes=125, $repetition=0"
attr measurement $numNodes=125
attr network csma802154net
attr numNodes 125
attr processid 184
attr repetition 0
attr replication #0
attr resultdir results
attr runnumber 75
attr seedset 75

vector 511  csma802154net.dataCentricNetworkMan  RREQPacketFrequency  ETV
vector 512  csma802154net.dataCentricNetworkMan  RERRPacketFrequency  ETV
vector 513  csma802154net.dataCentricNetworkMan  DiscoveryPacketFrequency  ETV
vector 514  csma802154net.dataCentricNetworkMan  RegisterPacketFrequency  ETV
vector 515  csma802154net.dataCentricNetworkMan  RReplyPacketFrequency  ETV
vector 516  csma802154net.dataCentricNetworkMan  AODVDataPacketFrequency  ETV
vector 523  csma802154net.dataCentricNetworkMan  pendingRegistrationVector  ETV
vector 522  csma802154net.dataCentricNetworkMan  pendingRREQVector  ETV
vector 520  csma802154net.dataCentricNetworkMan  PendingDataPacketsVector  ETV
vector 537  csma802154net.fixhost[13].udpApp  "End-to-end delay"  ETV
vector 508  csma802154net.dataCentricNetworkMan  dataPacketE2EDelay  ETV
vector 547  csma802154net.fixhost[23].udpApp  "End-to-end delay"  ETV
vector 528  csma802154net.fixhost[4].udpApp  "End-to-end delay"  ETV
vector 529  csma802154net.fixhost[5].udpApp  "End-to-end delay"  ETV
vector 532  csma802154net.fixhost[8].udpApp  "End-to-end delay"  ETV
vector 534  csma802154net.fixhost[10].udpApp  "End-to-end delay"  ETV
vector 525  csma802154net.fixhost[1].udpApp  "End-to-end delay"  ETV
vector 527  csma802154net.fixhost[3].udpApp  "End-to-end delay"  ETV
vector 530  csma802154net.fixhost[6].udpApp  "End-to-end delay"  ETV
508	1545994	70.073636028075	0.073636028075
508	1547301	70.081876065879	0.081876065879
508	1551163	71.024236064164	0.024236064164
508	1552442	71.048804087231	0.048804087231
508	1553988	72.007396026184	0.007396026184
508	1554597	72.01151605611	0.01151605611
508	1558902	73.026404066313	0.026404066313
508	1559667	73.037316083076	0.037316083076
508	1560980	73.062484108549	0.062484108549
508	1715279	670.008996028075	0.008996028075
508	1716587	670.018516065879	0.018516065879
508	1720823	671.020076064164	0.020076064164
508	1721457	671.02288408723	0.02288408723
508	1723003	672.008996026183	0.008996026183
508	1723612	672.014076056109	0.014076056109
508	1727788	673.026796066313	0.026796066313
508	1729063	673.033756108548	0.033756108548
508	1729675	673.038132083076	0.038132083076
508	1884032	1270.006756028075	0.006756028075
508	1885339	1270.014036065879	0.014036065879
508	1889199	1271.020396064162	0.020396064162
508	1890477	1271.04496408723	0.04496408723
508	1892023	1272.008356026184	0.008356026184
508	1892632	1272.01311605611	0.01311605611
508	1896165	1273.021676066313	0.021676066313
508	1897439	1273.028284083076	0.028284083076
508	1898749	1273.035604108548	0.035604108548
508	2053173	1870.008356028075	0.008356028075
508	2054481	1870.018516065879	0.018516065879
508	2058690	1871.023916064163	0.023916064163
508	2059322	1871.026404087229	0.026404087229
508	2060868	1872.007396026184	0.007396026184
508	2061477	1872.01247605611	0.01247605611
508	2065644	1873.025156083076	0.025156083076
508	2066957	1873.032404108549	0.032404108549
508	2067583	1873.037460066312	0.037460066312
508	2221905	2470.006436028075	0.006436028075
508	2223213	2470.015636065879	0.015636065879
508	2227414	2471.017196064164	0.017196064164
508	2228049	2471.021036087231	0.021036087231
508	2229595	2472.007716026184	0.007716026184
508	2230204	2472.01119605611	0.01119605611
508	2234379	2473.026156066313	0.026156066313
508	2236859	2473.057044108549	0.057044108549
508	2237472	2473.066220083076	0.066220083076
508	2391829	3070.008356028075	0.008356028075
508	2393137	3070.017236065878	0.017236065878
508	2396739	3071.021996064163	0.021996064163
508	2398012	3071.029604087231	0.029604087231
508	2399559	3072.010276026184	0.010276026184
508	2400167	3072.01375605611	0.01375605611
508	2403699	3073.020076066312	0.020076066312
508	2406857	3073.076212083075	0.076212083075
508	2408161	3073.082180108548	0.082180108548
508	2562586	3670.010916028075	0.010916028075
508	2563893	3670.019796065878	0.019796065878
508	2568134	3671.020716064163	0.020716064163
508	2568763	3671.02256408723	0.02256408723
508	2570309	3672.007076026184	0.007076026184
508	2570918	3672.01087605611	0.01087605611
508	2575099	3673.027364066312	0.027364066312
508	2575738	3673.030524083075	0.030524083075
508	2577048	3673.042572108548	0.042572108548
508	2731347	4270.008356028074	0.008356028074
508	2732655	4270.015956065877	0.015956065877
508	2736515	4271.023276064162	0.023276064162
508	2737793	4271.047204087227	0.047204087227
508	2739339	4272.007716026183	0.007716026183
508	2739948	4272.012156056109	0.012156056109
508	2744120	4273.025196066313	0.025196066313
508	2745393	4273.029636083076	0.029636083076
508	2746017	4273.031196108549	0.031196108549
508	2900981	4870.008036028075	0.008036028075
508	2902289	4870.017556065879	0.017556065879
508	2906150	4871.018796064164	0.018796064164
508	2907429	4871.043684087231	0.043684087231
508	2908975	4872.008356026184	0.008356026184
508	2909584	4872.012796056109	0.012796056109
508	2913116	4873.019116066313	0.019116066313
508	2915038	4873.032372083076	0.032372083076
508	2915709	4873.040012108549	0.040012108549
508	3070133	5470.006756028075	0.006756028075
508	3071440	5470.014996065879	0.014996065879
508	3074987	5471.019116087231	0.019116087231
508	3076318	5471.030812064164	0.030812064164
508	3077865	5472.006756026184	0.006756026184
508	3078474	5472.01183605611	0.01183605611
508	3082641	5473.028036083075	0.028036083075
508	3083955	5473.037844108547	0.037844108547
508	3084581	5473.044500066312	0.044500066312
508	3238904	6070.010596028075	0.010596028075
508	3240211	6070.019476065879	0.019476065879
508	3244440	6071.02359608723	0.02359608723
508	3245085	6071.026404064163	0.026404064163
508	3246632	6072.008356026184	0.008356026184
508	3247241	6072.01183605611	0.01183605611
508	3250774	6073.026156066313	0.026156066313
508	3252053	6073.036924083076	0.036924083076
508	3253363	6073.046412108549	0.046412108549
508	3407662	6670.009636028075	0.009636028075
508	3408970	6670.018836065879	0.018836065879
508	3413213	6671.022636064163	0.022636064163
508	3413844	6671.02480408723	0.02480408723
508	3415390	6672.008996026184	0.008996026184
508	3415999	6672.01247605611	0.01247605611
508	3420166	6673.025156083075	0.025156083075
508	3421479	6673.034644108548	0.034644108548
508	3422106	6673.048980066313	0.048980066313
508	3576554	7270.012196028075	0.012196028075
508	3577861	7270.020756065879	0.020756065879
508	3581723	7271.021996064163	0.021996064163
508	3583001	7271.04496408723	0.04496408723
508	3584547	7272.007396026183	0.007396026183
508	3585156	7272.012796056109	0.012796056109
508	3589576	7273.027396083073	0.027396083073
508	3590263	7273.033196066311	0.033196066311
508	3591539	7273.057044108547	0.057044108547
511	1133	1.005	1
511	1886	1.01	90
511	3960	1.015	107
511	8630	1.02	79
511	12464	1.025	18
511	15307	1.03	123
511	17842	1.035	125
511	21011	1.04	112
511	23261	1.045	64
511	25308	1.05	111
511	27667	1.055	153
511	28729	1.06	77
511	30142	1.065	70
511	31684	1.07	125
511	32913	1.075	86
511	34258	1.08	83
511	35360	1.085	86
511	36251	1.09	79
511	37526	1.095	114
511	39011	1.1	144
511	40109	1.105	57
511	41834	1.11	105
511	43136	1.115	97
511	44608	1.12	140
511	45366	1.125	45
511	46343	1.13	66
511	47174	1.135	91
511	47738	1.14	35
511	48332	1.145	68
511	49509	1.15	131
511	50384	1.155	71
511	51247	1.16	98
511	51849	1.165	69
511	52389	1.17	57
511	52860	1.175	42
511	53259	1.18	29
511	54277	1.185	74
511	54742	1.19	69
511	54746	1.195	0
511	56069	1.203075106338	109
511	56891	1.208075106338	61
511	56892	1.213075106338	0
511	67762	43.505	1
511	67769	43.51	0
511	70993	43.519834213076	71
511	73859	43.524834213076	0
511	76024	43.529834213076	0
511	77786	43.534834213076	0
511	78949	43.539834213076	0
511	81413	43.545216169937	0
511	83367	43.550216169937	0
511	86416	43.560195063865	0
511	87760	43.565195063865	0
511	90289	43.571675968454	0
511	91899	43.576675968454	0
511	94695	43.584514798639	0
511	96179	43.589514798639	0
511	101979	43.608616016181	0
511	103577	43.613616016181	0
511	105880	43.620881522681	0
511	107673	43.625881522681	0
511	113842	43.644841937578	0
511	115643	43.649841937578	0
511	116775	43.654841937578	0
511	118385	43.659841937578	0
511	120268	43.664841937578	0
511	126971	43.684991185466	0
511	128629	43.689991185466	0
511	130149	43.694991185466	0
511	131515	43.699991185466	0
511	133173	43.705009572076	0
511	134392	43.710009572076	0
511	138664	43.724483946076	0
511	140056	43.729483946076	0
511	145066	43.743256878889	0
511	146160	43.748256878889	0
511	148094	43.753256878889	0
511	150748	43.763281756845	0
511	152290	43.768281756845	0
511	153928	43.773281756845	0
511	155448	43.778281756845	0
511	157194	43.783281756845	0
511	160121	43.792558793513	0
511	160948	43.797558793513	0
511	162542	43.802558793513	0
511	164045	43.807558793513	0
511	165568	43.812558793513	0
511	167607	43.817558793513	0
511	169160	43.822558793513	0
511	170630	43.827558793513	0
511	172119	43.832558793513	0
511	173557	43.837558793513	0
511	175447	43.842558793513	0
511	177168	43.847558793513	0
511	178401	43.852558793513	0
511	180111	43.857558793513	0
511	181718	43.862558793513	0
511	182685	43.867558793513	0
511	184619	43.872558793513	0
511	190229	43.891639633883	0
511	191271	43.896639633883	0
511	193062	43.901639633883	0
511	195520	43.908585552725	0
511	196281	43.913585552725	0
511	197351	43.918585552725	0
511	198442	43.923585552725	0
511	200785	43.930155568377	0
511	201861	43.935155568377	0
511	203065	43.941499763366	0
511	204282	43.946499763366	0
511	205383	43.951499763366	0
511	206612	43.956499763366	0
511	208149	43.961499763366	0
511	209524	43.966499763366	0
511	210915	43.971499763366	0
511	212348	43.976499763366	0
511	213441	43.981499763366	0
511	214785	43.986499763366	0
511	216464	43.991556728384	0
511	217623	43.996556728384	0
511	218935	44.001556728384	0
511	220163	44.006556728384	0
511	221238	44.011556728384	0
511	223234	44.022030797463	0
511	224537	44.027030797463	0
511	225353	44.032030797463	0
511	226644	44.037030797463	0
511	227735	44.042030797463	0
511	229461	44.047030797463	0
511	230775	44.053013413242	0
511	232068	44.058013413242	0
511	233128	44.063013413242	0
511	233741	44.068013413242	0
511	234490	44.073013413242	0
511	235902	44.078529677302	0
511	236700	44.083529677302	0
511	237821	44.088529677302	0
511	239003	44.093529677302	0
511	239758	44.098529677302	0
511	240886	44.104200555063	0
511	240888	44.109200555063	0
511	242149	44.119802321766	0
511	242997	44.124802321766	0
511	243661	44.129802321766	0
511	244317	44.134802321766	0
511	244452	44.139802321766	0
511	246211	44.150937749153	0
511	246215	44.155937749153	0
511	247280	44.163185501193	0
511	247813	44.168185501193	0
511	247814	44.173185501193	0
511	247816	44.185599419418	0
511	247820	44.190599419418	0
511	249053	44.197829776411	0
511	249054	44.202829776411	0
511	249067	44.505	1
511	249945	44.51	77
511	252401	44.515	0
511	255575	44.52	0
511	258121	44.52631908568	0
511	260057	44.53131908568	0
511	261323	44.53631908568	0
511	263475	44.54131908568	0
511	264609	44.54631908568	0
511	267302	44.555571827601	0
511	268869	44.560571827601	0
511	270138	44.565571827601	0
511	271925	44.570571827601	0
511	273455	44.575571827601	0
511	278257	44.590760101135	0
511	279919	44.595760101135	0
511	281537	44.600760101135	0
511	283426	44.605760101135	0
511	285373	44.614641056236	0
511	287104	44.619641056236	0
511	288312	44.624641056236	0
511	292525	44.639323309784	0
511	294197	44.644323309784	0
511	295855	44.649323309784	0
511	297321	44.655392230318	0
511	298762	44.660392230318	0
511	304382	44.676252758088	0
511	305417	44.681252758088	0
511	308252	44.690469508586	0
511	310447	44.695469508586	0
511	312200	44.700469508586	0
511	314539	44.708647718235	0
511	316271	44.713647718235	0
511	318089	44.718647718235	0
511	320357	44.726058382536	0
511	322152	44.731058382536	0
511	324026	44.736058382536	0
511	326084	44.741058382536	0
511	328077	44.746058382536	0
511	329417	44.751058382536	0
511	331763	44.756058382536	0
511	333606	44.761058382536	0
511	335122	44.766058382536	0
511	339149	44.779236331442	0
511	340387	44.784236331442	0
511	341730	44.789236331442	0
511	343275	44.794236331442	0
511	345198	44.799236331442	0
511	346884	44.804236331442	0
511	350144	44.814474354248	0
511	351784	44.819474354248	0
511	353943	44.827352639993	0
511	355026	44.832352639993	0
511	357766	44.842792920508	0
511	359681	44.847792920508	0
511	360910	44.852792920508	0
511	363281	44.861129182742	0
511	364816	44.866129182742	0
511	366600	44.872580199033	0
511	368245	44.877580199033	0
511	369327	44.882580199033	0
511	372909	44.893184778116	0
511	374617	44.898184778116	0
511	375979	44.903184778116	0
511	377613	44.908184778116	0
511	379735	44.913184778116	0
511	380504	44.918184778116	0
511	382785	44.925686618373	0
511	384268	44.930686618373	0
511	385674	44.935686618373	0
511	386490	44.940686618373	0
511	387985	44.945986372375	0
511	389382	44.950986372375	0
511	395433	44.974442942522	0
511	397172	44.979442942522	0
511	398665	44.984442942522	0
511	399803	44.989442942522	0
511	403307	45.005902422691	0
511	404836	45.010902422691	0
511	406750	45.018034978069	0
511	408202	45.023034978069	0
511	409738	45.029020702201	0
511	410688	45.034020702201	0
511	412547	45.039020702201	0
511	413385	45.044020702201	0
511	415467	45.051679423989	0
511	416525	45.056679423989	0
511	417443	45.061679423989	0
511	418517	45.066679423989	0
511	419559	45.071679423989	0
511	420524	45.076679423989	0
511	421648	45.081679423989	0
511	422848	45.086679423989	0
511	423653	45.091679423989	0
511	424841	45.096679423989	0
511	425768	45.101679423989	0
511	426860	45.106679423989	0
511	427521	45.111679423989	0
511	428023	45.116679423989	0
511	428807	45.121679423989	0
511	430074	45.126679423989	0
511	430905	45.131679423989	0
511	431698	45.136679423989	0
511	432508	45.141679423989	0
511	433150	45.146679423989	0
511	433808	45.151679423989	0
511	434731	45.156679423989	0
511	434733	45.161679423989	0
511	434868	45.166679423989	0
511	435346	45.172195481654	0
511	435483	45.177195481654	0
511	436782	45.186448098467	0
511	437291	45.191448098467	0
511	437292	45.196448098467	0
511	437308	45.505	1
511	438102	45.51	20
511	439287	45.515	0
511	440368	45.52	0
511	441339	45.525	0
511	442619	45.53	0
511	443568	45.535	0
511	444209	45.54	0
511	445141	45.545	0
511	446157	45.55	0
511	447489	45.555	0
511	448263	45.56	0
511	448891	45.565	0
511	449337	45.57	0
511	449928	45.575	0
511	450985	45.58	0
511	454059	45.598158185686	0
511	455345	45.603158185686	0
511	458443	45.619604177458	0
511	459018	45.624604177458	0
511	460367	45.630596399024	0
511	461072	45.635596399024	0
511	462436	45.641179523613	0
511	462872	45.646179523613	0
511	463973	45.651179523613	0
511	464580	45.656179523613	0
511	465142	45.661179523613	0
511	465915	45.668145140243	0
511	467628	45.673145140243	0
511	468638	45.679484302069	0
511	469633	45.684484302069	0
511	470076	45.696784168843	0
511	470816	45.701784168843	0
511	471806	45.706784168843	0
511	474605	45.723222859975	0
511	475245	45.728222859975	0
511	480736	45.762294207237	0
511	481130	45.767294207237	0
511	482827	45.781312832462	0
511	483152	45.786312832462	0
511	483297	45.791312832462	0
511	484479	45.796312832462	0
511	485688	45.801924311747	0
511	486779	45.806924311747	0
511	487367	45.811924311747	0
511	489765	45.835756298892	0
511	489769	45.840756298892	0
511	490605	46.505	1
511	490615	46.51	0
511	492804	46.518181926972	41
511	494487	46.523181926972	0
511	496035	46.528181926972	0
511	497620	46.533296418005	0
511	498972	46.538296418005	0
511	500180	46.543296418005	0
511	502159	46.550100103592	0
511	503642	46.555100103592	0
511	504927	46.560100103592	0
511	506284	46.565100103592	0
511	507991	46.570100103592	0
511	509518	46.575100103592	0
511	511311	46.580100103592	0
511	512732	46.585100103592	0
511	514431	46.592091708887	0
511	515210	46.597091708887	0
511	516711	46.602091708887	0
511	518756	46.608892573779	0
511	520002	46.613892573779	0
511	521491	46.618892573779	0
511	524632	46.632861370135	0
511	526428	46.637861370135	0
511	527358	46.642861370135	0
511	529177	46.647861370135	0
511	530288	46.652861370135	0
511	531925	46.657861370135	0
511	534906	46.670693319839	0
511	535845	46.675693319839	0
511	537385	46.680693319839	0
511	539388	46.689730019686	0
511	540807	46.694730019686	0
511	542715	46.699730019686	0
511	543651	46.704730019686	0
511	545121	46.709730019686	0
511	546621	46.717362832624	0
511	548006	46.722362832624	0
511	549047	46.727362832624	0
511	550446	46.732362832624	0
511	551459	46.737362832624	0
511	552251	46.742362832624	0
511	553310	46.747362832624	0
511	554743	46.753143270843	0
511	556345	46.758143270843	0
511	556943	46.763143270843	0
511	557696	46.769373468653	0
511	558912	46.774373468653	0
511	560134	46.779373468653	0
511	561340	46.784373468653	0
511	563335	46.792392059386	0
511	564387	46.797392059386	0
511	565730	46.802392059386	0
511	566851	46.807392059386	0
511	567388	46.812392059386	0
511	568132	46.817392059386	0
511	569173	46.822976161591	0
511	570418	46.827976161591	0
511	571767	46.832976161591	0
511	572684	46.837976161591	0
511	573949	46.844353341211	0
511	574563	46.849353341211	0
511	575850	46.854365637203	0
511	576874	46.859365637203	0
511	577646	46.864365637203	0
511	578735	46.870538156464	0
511	579328	46.875538156464	0
511	579464	46.880538156464	0
511	580366	46.886629612427	0
511	581165	46.891629612427	0
511	581946	46.896629612427	0
511	582464	46.901629612427	0
511	584110	46.914918440686	0
511	584407	46.919918440686	0
511	585688	46.933026017024	0
511	586322	46.938026017024	0
511	586323	46.943026017024	0
511	586942	46.953682970511	0
511	586943	46.958682970511	0
511	587573	46.98518246882	0
511	587708	46.99018246882	0
511	588222	46.996448476472	0
511	588474	47.001448476472	0
511	589126	47.018100180987	0
511	589127	47.023100180987	0
511	589140	47.505	1
511	589773	47.51	43
511	591782	47.515	0
511	594206	47.52	0
511	596292	47.52603756207	0
511	597550	47.53103756207	0
511	598665	47.53603756207	0
511	599803	47.54103756207	0
511	601013	47.54603756207	0
511	602522	47.55103756207	0
511	603938	47.55603756207	0
511	605167	47.56103756207	0
511	606083	47.56603756207	0
511	607351	47.57103756207	0
511	610027	47.578773942658	0
511	610928	47.583773942658	0
511	612017	47.588773942658	0
511	613052	47.593773942658	0
511	614625	47.598773942658	0
511	616237	47.603773942658	0
511	617927	47.609677435367	0
511	618969	47.614677435367	0
511	620574	47.619677435367	0
511	622052	47.624677435367	0
511	626465	47.640748918062	0
511	627593	47.645748918062	0
511	629137	47.650748918062	0
511	630214	47.655748918062	0
511	631477	47.662012911948	0
511	632761	47.667012911948	0
511	636408	47.684816882764	0
511	638065	47.689816882764	0
511	639676	47.694816882764	0
511	640873	47.699816882764	0
511	642151	47.70656722409	0
511	643051	47.71156722409	0
511	644772	47.717458955243	0
511	646088	47.722458955243	0
511	647319	47.727458955243	0
511	648115	47.732458955243	0
511	649773	47.737458955243	0
511	650522	47.742458955243	0
511	652947	47.750883577043	0
511	654603	47.755883577043	0
511	655664	47.760883577043	0
511	656770	47.765883577043	0
511	658003	47.770883577043	0
511	659488	47.775883577043	0
511	660876	47.780883577043	0
511	662286	47.785883577043	0
511	663223	47.790883577043	0
511	664964	47.798025748989	0
511	665903	47.803025748989	0
511	667980	47.809442783183	0
511	669078	47.814442783183	0
511	669858	47.819442783183	0
511	673171	47.833543459083	0
511	674269	47.838543459083	0
511	675464	47.843543459083	0
511	677314	47.854505736081	0
511	678266	47.859505736081	0
511	679083	47.864505736081	0
511	680129	47.869505736081	0
511	681041	47.874505736081	0
511	682331	47.879505736081	0
511	683499	47.884505736081	0
511	684127	47.889505736081	0
511	685496	47.894505736081	0
511	686429	47.899505736081	0
511	687207	47.904505736081	0
511	688482	47.909505736081	0
511	689610	47.914505736081	0
511	690193	47.919505736081	0
511	690796	47.924505736081	0
511	691405	47.929505736081	0
511	692051	47.934505736081	0
511	692700	47.939505736081	0
511	693380	47.944505736081	0
511	694029	47.949505736081	0
511	695907	47.960734678579	0
511	695908	47.965734678579	0
511	696567	47.976515319327	0
511	696568	47.981515319327	0
511	697446	48.028615018955	0
511	697447	48.033615018955	0
511	698081	48.099550418793	0
511	698082	48.104550418793	0
511	698229	48.505	1
511	699605	48.51	43
511	701713	48.515	0
511	704344	48.52	0
511	705764	48.525	0
511	707327	48.53	0
511	709357	48.535	0
511	711781	48.54	0
511	714260	48.548650501545	0
511	715663	48.553650501545	0
511	717521	48.558650501545	0
511	718928	48.563650501545	0
511	720875	48.571520588107	0
511	722563	48.576520588107	0
511	723529	48.581520588107	0
511	726446	48.588860559116	0
511	728119	48.593860559116	0
511	730053	48.598860559116	0
511	730821	48.603860559116	0
511	732296	48.608860559116	0
511	733731	48.613860559116	0
511	736623	48.626107649743	0
511	738451	48.631107649743	0
511	739841	48.636107649743	0
511	744794	48.65556723284	0
511	746200	48.66056723284	0
511	747611	48.66556723284	0
511	749761	48.672851057334	0
511	751430	48.677851057334	0
511	752849	48.682851057334	0
511	753796	48.687851057334	0
511	755139	48.692851057334	0
511	756159	48.697851057334	0
511	757189	48.702851057334	0
511	761255	48.716685184768	0
511	762260	48.721685184768	0
511	763470	48.726685184768	0
511	765138	48.731685184768	0
511	766295	48.736685184768	0
511	767933	48.741685184768	0
511	769308	48.749208610648	0
511	770351	48.754208610648	0
511	771640	48.759208610648	0
511	772845	48.764208610648	0
511	774168	48.769944309485	0
511	775568	48.774944309485	0
511	776793	48.779944309485	0
511	779245	48.789087554685	0
511	780291	48.794087554685	0
511	781324	48.799087554685	0
511	782437	48.804087554685	0
511	783829	48.809087554685	0
511	785118	48.814087554685	0
511	787075	48.820122287591	0
511	788211	48.825122287591	0
511	789210	48.830122287591	0
511	793571	48.848245940833	0
511	794641	48.853245940833	0
511	796817	48.864738532452	0
511	798508	48.869738532452	0
511	799895	48.875919567866	0
511	800836	48.880919567866	0
511	801435	48.885919567866	0
511	802968	48.895192550269	0
511	803707	48.900192550269	0
511	805151	48.908452405073	0
511	805576	48.913452405073	0
511	805889	48.918452405073	0
511	807339	48.923452405073	0
511	807805	48.928452405073	0
511	808403	48.933888859082	0
511	808896	48.938888859082	0
511	808901	48.943888859082	0
511	810211	48.950526595351	0
511	810842	48.955526595351	0
511	810843	48.960526595351	0
511	811172	49.505	1
511	811583	49.51	24
511	812671	49.515	0
511	813882	49.52	0
511	815239	49.525	0
511	816985	49.53	0
511	817315	49.535	0
511	818748	49.54	0
511	819764	49.545	0
511	820699	49.55	0
511	822103	49.555	0
511	823281	49.56	0
511	824298	49.565	0
511	825531	49.570731854565	0
511	826125	49.575731854565	0
511	827015	49.581062763413	0
511	827825	49.586062763413	0
511	828815	49.591062763413	0
511	829845	49.596062763413	0
511	830734	49.601062763413	0
511	832626	49.609448454184	0
511	833114	49.614448454184	0
511	834258	49.619448454184	0
511	835114	49.624448454184	0
511	836307	49.631971445654	0
511	837072	49.636971445654	0
511	838564	49.644599085644	0
511	839140	49.649599085644	0
511	840317	49.655455977092	0
511	841135	49.660455977092	0
511	842163	49.665455977092	0
511	843046	49.671887945154	0
511	843799	49.676887945154	0
511	844539	49.683677786137	0
511	845924	49.688677786137	0
511	846820	49.693677786137	0
511	849190	49.706139616804	0
511	849805	49.711139616804	0
511	851126	49.723013059934	0
511	851702	49.728013059934	0
511	852610	49.733013059934	0
511	852761	49.738013059934	0
511	854105	49.746553711863	0
511	854701	49.751553711863	0
511	855179	49.756553711863	0
511	855180	49.761553711863	0
511	856108	49.77491781922	0
511	856553	49.77991781922	0
511	857014	49.785457267735	0
511	857015	49.790457267735	0
511	858813	49.841339880741	0
511	858817	49.846339880741	0
511	859438	49.854463999423	0
511	859439	49.859463999423	0
511	860039	49.867679990754	0
511	860040	49.872679990754	0
511	860997	50.505	1
511	861004	50.51	0
511	863032	50.518682914055	50
511	865730	50.523682914055	0
511	868270	50.532413091852	0
511	869578	50.537413091852	0
511	871237	50.542413091852	0
511	872540	50.547413091852	0
511	874435	50.552413091852	0
511	875644	50.557413091852	0
511	876625	50.562413091852	0
511	877461	50.567413091852	0
511	878913	50.572413091852	0
511	880302	50.577413091852	0
511	882132	50.582413091852	0
511	883670	50.587413091852	0
511	885103	50.592413091852	0
511	886338	50.597413091852	0
511	890046	50.610693092987	0
511	890886	50.615693092987	0
511	891705	50.620693092987	0
511	895824	50.63925560682	0
511	897390	50.64425560682	0
511	898489	50.64925560682	0
511	903415	50.669711436632	0
511	904850	50.674711436632	0
511	908821	50.690681492448	0
511	910436	50.695681492448	0
511	915099	50.714848964766	0
511	917016	50.719848964766	0
511	918414	50.724848964766	0
511	919873	50.731577012098	0
511	921376	50.736577012098	0
511	923602	50.741577012098	0
511	924567	50.746577012098	0
511	926113	50.751577012098	0
511	927741	50.756577012098	0
511	928479	50.761577012098	0
511	929724	50.766746607796	0
511	930911	50.771746607796	0
511	932213	50.776746607796	0
511	933259	50.781746607796	0
511	935432	50.790004447077	0
511	936582	50.795004447077	0
511	937530	50.800004447077	0
511	939659	50.806143222175	0
511	940695	50.811143222175	0
511	943485	50.822012181986	0
511	944742	50.827012181986	0
511	945751	50.832012181986	0
511	947416	50.837012181986	0
511	948982	50.842012181986	0
511	950027	50.847012181986	0
511	950953	50.852012181986	0
511	953008	50.861290794604	0
511	953930	50.866290794604	0
511	955774	50.8809576036	0
511	956974	50.8859576036	0
511	958220	50.8909576036	0
511	959773	50.899962457753	0
511	960854	50.904962457753	0
511	961907	50.909962457753	0
511	963174	50.914962457753	0
511	964115	50.919962457753	0
511	965673	50.927102663553	0
511	966308	50.932102663553	0
511	967055	50.937102663553	0
511	968038	50.942102663553	0
511	968687	50.947102663553	0
511	969210	50.952102663553	0
511	969866	50.957102663553	0
511	970001	50.962102663553	0
511	970799	50.967128848238	0
511	971108	50.972128848238	0
511	972232	50.983001475108	0
511	972409	50.988001475108	0
511	973066	50.999980158841	0
511	973318	51.004980158841	0
511	973945	51.029924172744	0
511	973946	51.034924172744	0
511	974569	51.053736354215	0
511	974570	51.058736354215	0
511	974597	51.505	1
511	974607	51.51	0
511	977886	51.517219596418	68
511	980501	51.522219596418	0
511	982447	51.527219596418	0
511	985311	51.534669250959	0
511	987469	51.539669250959	0
511	989009	51.544669250959	0
511	990996	51.549669250959	0
511	993604	51.558144607596	0
511	995496	51.563144607596	0
511	997158	51.568144607596	0
511	1000127	51.575783129387	0
511	1001574	51.580783129387	0
511	1003309	51.585795149478	0
511	1004734	51.590795149478	0
511	1007135	51.60042639059	0
511	1009412	51.60542639059	0
511	1011410	51.61042639059	0
511	1012661	51.61542639059	0
511	1013955	51.62042639059	0
511	1015841	51.62737976474	0
511	1017730	51.63237976474	0
511	1020218	51.63737976474	0
511	1021850	51.64237976474	0
511	1023158	51.64737976474	0
511	1024364	51.65237976474	0
511	1025864	51.65737976474	0
511	1027201	51.66237976474	0
511	1029252	51.66737976474	0
511	1030825	51.67237976474	0
511	1032363	51.67737976474	0
511	1035128	51.684940992794	0
511	1036786	51.689940992794	0
511	1039426	51.699737673845	0
511	1041034	51.704737673845	0
511	1042331	51.709737673845	0
511	1044588	51.715386379973	0
511	1046174	51.720386379973	0
511	1048168	51.725386379973	0
511	1050946	51.734120323446	0
511	1052790	51.739120323446	0
511	1054251	51.744120323446	0
511	1055998	51.749120323446	0
511	1059372	51.76109890285	0
511	1061018	51.76609890285	0
511	1063230	51.77188554722	0
511	1064155	51.77688554722	0
511	1066044	51.782866548288	0
511	1068047	51.787866548288	0
511	1069722	51.792866548288	0
511	1072120	51.800708090141	0
511	1073821	51.805708090141	0
511	1075798	51.812469022062	0
511	1077407	51.817469022062	0
511	1079840	51.822469022062	0
511	1081588	51.827469022062	0
511	1084343	51.836452701029	0
511	1085914	51.841452701029	0
511	1087379	51.846452701029	0
511	1089371	51.851452701029	0
511	1091144	51.856452701029	0
511	1092977	51.862387858621	0
511	1094726	51.867387858621	0
511	1096200	51.872387858621	0
511	1097831	51.877387858621	0
511	1099430	51.883177103934	0
511	1100941	51.888177103934	0
511	1101932	51.893177103934	0
511	1104052	51.900447373533	0
511	1105842	51.905447373533	0
511	1107245	51.910447373533	0
511	1108408	51.915447373533	0
511	1109283	51.920450504333	0
511	1110903	51.925450504333	0
511	1113103	51.935964917721	0
511	1114419	51.940964917721	0
511	1115948	51.945964917721	0
511	1117669	51.950964917721	0
511	1118783	51.955964917721	0
511	1120237	51.960964917721	0
511	1121181	51.965964917721	0
511	1122141	51.970964917721	0
511	1123567	51.975964917721	0
511	1124854	51.980964917721	0
511	1125589	51.985964917721	0
511	1126551	51.992532000214	0
511	1127708	51.997532000214	0
511	1129421	52.004510060546	0
511	1130360	52.009510060546	0
511	1131805	52.014510060546	0
511	1132656	52.019510060546	0
511	1133331	52.024510060546	0
511	1134501	52.029510060546	0
511	1135259	52.034510060546	0
511	1137136	52.042858389924	0
511	1137805	52.047858389924	0
511	1137807	52.052858389924	0
511	1138778	52.061478541865	0
511	1139093	52.066478541865	0
511	1139763	52.074170311293	0
511	1140412	52.079170311293	0
511	1141080	52.084170311293	0
511	1141081	52.089170311293	0
511	1141138	52.505	1
511	1142358	52.51	44
511	1144519	52.515	0
511	1146631	52.52	0
511	1148044	52.525	0
511	1149896	52.530529997719	0
511	1151011	52.535529997719	0
511	1152384	52.540529997719	0
511	1154962	52.551185652731	0
511	1156214	52.556185652731	0
511	1158256	52.564417672385	0
511	1159647	52.569417672385	0
511	1161038	52.574417672385	0
511	1162810	52.579417672385	0
511	1163899	52.584417672385	0
511	1165254	52.589417672385	0