file 80846 1349432516                                           
version 2
run AODVScenario_1g-0-20121005-11:19:36-3704
attr configname AODVScenario_1g
attr datetime 20121005-11:19:36
attr experiment AODVScenario_1g
attr inifile omnetpp.ini
attr iterationvars ""
attr iterationvars2 $repetition=0
attr measurement ""
attr network csma802154net
attr processid 3704
attr repetition 0
attr replication #0
attr resultdir results
attr runnumber 0
attr seedset 0

vector 386  csma802154net.dataCentricNetworkMan  RREQPacketFrequency  ETV
vector 387  csma802154net.dataCentricNetworkMan  DiscoveryPacketFrequency  ETV
vector 388  csma802154net.dataCentricNetworkMan  RegisterPacketFrequency  ETV
vector 389  csma802154net.dataCentricNetworkMan  RReplyPacketFrequency  ETV
vector 390  csma802154net.dataCentricNetworkMan  AODVDataPacketFrequency  ETV
vector 398  csma802154net.fixhost[6].udpApp  "End-to-end delay"  ETV
vector 383  csma802154net.dataCentricNetworkMan  dataPacketE2EDelay  ETV
vector 411  csma802154net.fixhost[19].udpApp  "End-to-end delay"  ETV
vector 412  csma802154net.fixhost[20].udpApp  "End-to-end delay"  ETV
vector 401  csma802154net.fixhost[9].udpApp  "End-to-end delay"  ETV
vector 404  csma802154net.fixhost[12].udpApp  "End-to-end delay"  ETV
vector 409  csma802154net.fixhost[17].udpApp  "End-to-end delay"  ETV
vector 403  csma802154net.fixhost[11].udpApp  "End-to-end delay"  ETV
vector 402  csma802154net.fixhost[10].udpApp  "End-to-end delay"  ETV
vector 408  csma802154net.fixhost[16].udpApp  "End-to-end delay"  ETV
vector 395  csma802154net.fixhost[3].udpApp  "End-to-end delay"  ETV
vector 393  csma802154net.fixhost[1].udpApp  "End-to-end delay"  ETV
vector 394  csma802154net.fixhost[2].udpApp  "End-to-end delay"  ETV
383	1721 512 772926 876669 70.008676037287 73.190186339829 12 0.008676037287 0.190186339829 0.444687342744 0.044494444509142
386	2233 16173 11001 1024227 40.005 80.245437721262 547 0 295 51993 7429421
387	18406 15482 11001 1024227 40.005 80.245437721262 547 0 0 0 0
388	33888 15482 11001 1024227 40.005 80.245437721262 547 0 1 12 12
389	49370 15482 11001 1024227 40.005 80.245437721262 547 0 2 34 50
390	64852 15482 11001 1024227 40.005 80.245437721262 547 0 4 79 141
393	80334 39 824912 824912 73.0245240702 73.0245240702 1 0.0245240702 0.0245240702 0.0245240702 0.00060143001917453
394	80373 43 876669 876669 73.190186339829 73.190186339829 1 0.190186339829 0.190186339829 0.190186339829 0.036170843857552
395	80416 43 824143 824143 73.021356101496 73.021356101496 1 0.021356101496 0.021356101496 0.021356101496 0.00045608307110745
398	80459 43 772926 772926 70.008676037287 70.008676037287 1 0.008676037287 0.008676037287 0.008676037287 7.5273623005414e-005
401	80502 43 787704 787704 71.008996043736 71.008996043736 1 0.008996043736 0.008996043736 0.008996043736 8.0928802900025e-005
402	80545 43 807014 807014 72.048444088053 72.048444088053 1 0.048444088053 0.048444088053 0.048444088053 0.0023468296672868
403	80588 43 805634 805634 72.027676125704 72.027676125704 1 0.027676125704 0.027676125704 0.027676125704 0.00076596793398361
404	80631 43 788364 788364 71.012796087909 71.012796087909 1 0.012796087909 0.012796087909 0.012796087909 0.00016373986577486
408	80674 43 808442 808442 72.055724147865 72.055724147865 1 0.055724147865 0.055724147865 0.055724147865 0.0031051806552804
409	80717 43 789028 789028 71.017236124951 71.017236124951 1 0.017236124951 0.017236124951 0.017236124951 0.00029708400332648
411	80760 43 773635 773635 70.012476074583 70.012476074583 1 0.012476074583 0.012476074583 0.012476074583 0.00015565243700058
412	80803 43 774319 774319 70.016596101131 70.016596101131 1 0.016596101131 0.016596101131 0.016596101131 0.00027543057275038
