version 2
run AODVScenario_1f-59-20121119-16:24:57-2968
attr configname AODVScenario_1f
attr datetime 20121119-16:24:57
attr experiment AODVScenario_1f
attr inifile AODV.ini
attr iterationvars $numNodes=109
attr iterationvars2 "$numNodes=109, $repetition=0"
attr measurement $numNodes=109
attr network csma802154net
attr numNodes 109
attr processid 2968
attr repetition 0
attr replication #0
attr resultdir results
attr runnumber 59
attr seedset 59

vector 447  csma802154net.dataCentricNetworkMan  RREQPacketFrequency  ETV
vector 448  csma802154net.dataCentricNetworkMan  RERRPacketFrequency  ETV
vector 449  csma802154net.dataCentricNetworkMan  DiscoveryPacketFrequency  ETV
vector 450  csma802154net.dataCentricNetworkMan  RegisterPacketFrequency  ETV
vector 451  csma802154net.dataCentricNetworkMan  RReplyPacketFrequency  ETV
vector 452  csma802154net.dataCentricNetworkMan  AODVDataPacketFrequency  ETV
vector 459  csma802154net.dataCentricNetworkMan  pendingRegistrationVector  ETV
vector 458  csma802154net.dataCentricNetworkMan  pendingRREQVector  ETV
vector 456  csma802154net.dataCentricNetworkMan  PendingDataPacketsVector  ETV
vector 471  csma802154net.fixhost[11].udpApp  "End-to-end delay"  ETV
vector 444  csma802154net.dataCentricNetworkMan  dataPacketE2EDelay  ETV
vector 475  csma802154net.fixhost[15].udpApp  "End-to-end delay"  ETV
vector 476  csma802154net.fixhost[16].udpApp  "End-to-end delay"  ETV
vector 466  csma802154net.fixhost[6].udpApp  "End-to-end delay"  ETV
vector 474  csma802154net.fixhost[14].udpApp  "End-to-end delay"  ETV
vector 465  csma802154net.fixhost[5].udpApp  "End-to-end delay"  ETV
vector 482  csma802154net.fixhost[22].udpApp  "End-to-end delay"  ETV
vector 470  csma802154net.fixhost[10].udpApp  "End-to-end delay"  ETV
vector 467  csma802154net.fixhost[7].udpApp  "End-to-end delay"  ETV
444	990840	70.009316022624	0.009316022624
444	991372	70.014396051761	0.014396051761
444	991905	70.018196080964	0.018196080964
444	994878	71.025196071021	0.025196071021
444	998874	72.03279614701	0.03279614701
444	999408	72.035996127898	0.035996127898
444	999939	72.040044178459	0.040044178459
444	1004549	73.047476124982	0.047476124982
444	1005671	73.061452102044	0.061452102044
444	1140175	670.007076022624	0.007076022624
444	1140707	670.011836051762	0.011836051762
444	1141240	670.017236080966	0.017236080966
444	1144212	671.022316071021	0.022316071021
444	1147261	672.020716068306	0.020716068306
444	1148459	672.051932090128	0.051932090128
444	1149524	672.063340120381	0.063340120381
444	1154767	673.060884102043	0.060884102043
444	1156569	673.090780124981	0.090780124981
444	1291625	1270.009636022624	0.009636022624
444	1292157	1270.013756051762	0.013756051762
444	1292690	1270.017556080966	0.017556080966
444	1295662	1271.020716071021	0.020716071021
444	1298843	1272.022316068306	0.022316068306
444	1300440	1272.056372119924	0.056372119924
444	1300975	1272.064012151373	0.064012151373
444	1305814	1273.035956124981	0.035956124981
444	1307463	1273.056404102044	0.056404102044
444	1442076	1870.009636022624	0.009636022624
444	1442609	1870.015036051762	0.015036051762
444	1443141	1870.019796080966	0.019796080966
444	1446113	1871.021676071021	0.021676071021
444	1449579	1872.021356068306	0.021356068306
444	1450108	1872.023204090127	0.023204090127
444	1451169	1872.02949212038	0.02949212038
444	1455760	1873.030556102044	0.030556102044
444	1456871	1873.036844124982	0.036844124982
444	1591375	2470.012196022623	0.012196022623
444	1591906	2470.015676051761	0.015676051761
444	1592439	2470.020436080965	0.020436080965
444	1595411	2471.021676071021	0.021676071021
444	1599407	2472.029276127898	0.029276127898
444	1599938	2472.034644147009	0.034644147009
444	1600473	2472.039404178458	0.039404178458
444	1605647	2473.034644102043	0.034644102043
444	1606200	2473.037236124981	0.037236124981
444	1740703	3070.007716022624	0.007716022624
444	1741235	3070.012476051762	0.012476051762
444	1741768	3070.016916080966	0.016916080966
444	1744740	3071.020076071021	0.020076071021
444	1747902	3072.022316068305	0.022316068305
444	1749196	3072.046884090128	0.046884090128
444	1750265	3072.076532120381	0.076532120381
444	1755435	3073.036276124982	0.036276124982
444	1755991	3073.039124102044	0.039124102044
444	1890604	3670.009956022624	0.009956022624
444	1891136	3670.014396051762	0.014396051762
444	1891669	3670.019476080966	0.019476080966
444	1894641	3671.022316071021	0.022316071021
444	1898651	3672.027324119924	0.027324119924
444	1899185	3672.030772098101	0.030772098101
444	1899716	3672.038092151373	0.038092151373
444	1904326	3673.034996124982	0.034996124982
444	1905448	3673.049932102044	0.049932102044
444	2039952	4270.007716022624	0.007716022624
444	2040484	4270.013116051762	0.013116051762
444	2041017	4270.018516080966	0.018516080966
444	2043989	4271.023276071017	0.023276071017
444	2047984	4272.034716127896	0.034716127896
444	2048516	4272.042396147008	0.042396147008
444	2049050	4272.045876178456	0.045876178456
444	2054175	4273.03112410204	0.03112410204
444	2054730	4273.034036124979	0.034036124979
444	2189787	4870.010276022624	0.010276022624
444	2190319	4870.015356051762	0.015356051762
444	2190852	4870.020436080966	0.020436080966
444	2193824	4871.021996071021	0.021996071021
444	2197524	4872.028036098102	0.028036098102
444	2198055	4872.033724117214	0.033724117214
444	2199121	4872.051004120381	0.051004120381
444	2204293	4873.034036124982	0.034036124982
444	2204852	4873.041932102044	0.041932102044
444	2339465	5470.007716022624	0.007716022624
444	2339997	5470.011196051762	0.011196051762
444	2340529	5470.014996080966	0.014996080966
444	2343501	5471.020076071021	0.020076071021
444	2346968	5472.0232360981	0.0232360981
444	2348030	5472.031164119923	0.031164119923
444	2348565	5472.036884151372	0.036884151372
444	2353744	5473.035924102044	0.035924102044
444	2354294	5473.03780412498	0.03780412498
444	2488797	6070.008036022624	0.008036022624
444	2489329	6070.011836051762	0.011836051762
444	2489862	6070.016916080966	0.016916080966
444	2492834	6071.021036071021	0.021036071021
444	2496304	6072.0245160981	0.0245160981
444	2497363	6072.033084119923	0.033084119923
444	2497899	6072.041044151372	0.041044151372
444	2502759	6073.034396102044	0.034396102044
444	2504437	6073.06269212498	0.06269212498
444	2638940	6670.007076022624	0.007076022624
444	2639472	6670.010876051762	0.010876051762
444	2640005	6670.016276080966	0.016276080966
444	2642977	6671.024876071021	0.024876071021
444	2646973	6672.038556127895	0.038556127895
444	2647504	6672.044956147006	0.044956147006
444	2648039	6672.050036178455	0.050036178455
444	2652629	6673.029596102044	0.029596102044
444	2653744	6673.037804124982	0.037804124982
444	2788357	7270.011876022623	0.011876022623
444	2788888	7270.016636051761	0.016636051761
444	2789422	7270.022036080964	0.022036080964
444	2792394	7271.023596071019	0.023596071019
444	2796384	7272.027676127898	0.027676127898
444	2796915	7272.03215614701	0.03215614701
444	2797450	7272.036916178459	0.036916178459
444	2802060	7273.032756124982	0.032756124982
444	2803181	7273.041292102043	0.041292102043
447	865	1.005	1
447	878	1.01	0
447	1496	1.016970288086	38
447	2713	1.021970288086	93
447	4844	1.026970288086	72
447	7467	1.031970288086	100
447	10375	1.036970288086	112
447	13394	1.041970288086	73
447	15537	1.046970288086	64
447	17398	1.051970288086	84
447	19220	1.056970288086	84
447	20974	1.061970288086	123
447	22773	1.066970288086	127
447	23990	1.071970288086	63
447	25170	1.076970288086	102
447	25910	1.081970288086	59
447	27164	1.086970288086	116
447	28310	1.091970288086	66
447	29545	1.096970288086	111
447	30266	1.101970288086	56
447	30669	1.106970288086	36
447	31100	1.111970288086	40
447	31968	1.116970288086	85
447	31972	1.121970288086	0
447	32892	1.130133374129	72
447	33615	1.135133374129	79
447	34066	1.140133374129	45
447	34821	1.145133374129	61
447	34822	1.150133374129	0
447	35239	1.161566381022	39
447	35240	1.166566381022	0
447	35677	1.213273973674	43
447	35678	1.218273973674	0
447	45156	43.505	1
447	45281	43.51	0
447	47301	43.515706478337	39
447	48930	43.520706478337	0
447	50448	43.525706478337	0
447	51478	43.530706478337	0
447	52463	43.535706478337	0
447	54112	43.541226817113	0
447	55418	43.546226817113	0
447	56911	43.551226817113	0
447	58356	43.556226817113	0
447	59609	43.561226817113	0
447	60721	43.566226817113	0
447	62509	43.572772801434	0
447	63304	43.577772801434	0
447	64442	43.582772801434	0
447	65447	43.587772801434	0
447	67907	43.599276872428	0
447	69440	43.604276872428	0
447	71833	43.612140342915	0
447	72722	43.617140342915	0
447	74513	43.625073992384	0
447	75647	43.630073992384	0
447	76948	43.637485564198	0
447	77844	43.642485564198	0
447	78502	43.647485564198	0
447	81173	43.657218835015	0
447	82346	43.662218835015	0
447	83158	43.667218835015	0
447	84301	43.672684901227	0
447	85338	43.677684901227	0
447	86471	43.682684901227	0
447	87681	43.687684901227	0
447	89085	43.695269809728	0
447	89870	43.700269809728	0
447	90903	43.705269809728	0
447	92271	43.710269809728	0
447	94294	43.718207175134	0
447	95341	43.723207175134	0
447	96403	43.728207175134	0
447	97437	43.733207175134	0
447	98681	43.738207175134	0
447	99918	43.743207175134	0
447	102913	43.758869651629	0
447	103578	43.763869651629	0
447	104573	43.768869651629	0
447	105347	43.773869651629	0
447	106631	43.782025088859	0
447	107532	43.787025088859	0
447	108606	43.792025088859	0
447	109597	43.797025088859	0
447	111247	43.805904545097	0
447	112241	43.810904545097	0
447	113517	43.815904545097	0
447	114068	43.820904545097	0
447	114702	43.825904545097	0
447	115724	43.831874987247	0
447	116853	43.836874987247	0
447	117741	43.841874987247	0
447	118268	43.846874987247	0
447	119051	43.851874987247	0
447	119303	43.856874987247	0
447	120483	43.861948900741	0
447	121143	43.866948900741	0
447	122056	43.871948900741	0
447	122060	43.876948900741	0
447	122813	43.886168796197	0
447	123339	43.891168796197	0
447	123875	43.896168796197	0
447	124608	43.901168796197	0
447	125135	43.908788277001	0
447	125254	43.913788277001	0
447	126678	43.928529206065	0
447	126679	43.933529206065	0
447	127209	43.948908164355	0
447	127210	43.953908164355	0
447	127862	43.969361749221	0
447	128281	43.974361749221	0
447	128282	43.979361749221	0
447	128632	44.505	1
447	129588	44.51	41
447	131862	44.515	0
447	133289	44.52	0
447	135093	44.528038006373	0
447	136140	44.533038006373	0
447	137204	44.538038006373	0
447	138708	44.543038006373	0
447	140235	44.548038006373	0
447	141398	44.553038006373	0
447	142418	44.558038006373	0
447	143607	44.564520490013	0
447	144890	44.569520490013	0
447	146055	44.574520490013	0
447	147465	44.581466065998	0
447	148870	44.586466065998	0
447	150027	44.591466065998	0
447	150895	44.596466065998	0
447	153509	44.607575898958	0
447	154903	44.612575898958	0
447	155964	44.617575898958	0
447	157203	44.622575898958	0
447	159162	44.632912940623	0
447	160732	44.637912940623	0
447	163009	44.646669131605	0
447	163551	44.651669131605	0
447	164675	44.656669131605	0
447	165786	44.661669131605	0
447	166790	44.666945795288	0
447	167216	44.671945795288	0
447	168131	44.676945795288	0
447	169026	44.681945795288	0
447	173388	44.704108476692	0
447	174335	44.709108476692	0
447	175371	44.714108476692	0
447	177358	44.721646262235	0
447	178551	44.726646262235	0
447	179859	44.731646262235	0
447	181577	44.739787627798	0
447	182707	44.744787627798	0
447	183621	44.749787627798	0
447	185633	44.756574666998	0
447	186656	44.761574666998	0
447	188046	44.766912570209	0
447	188830	44.771912570209	0
447	190530	44.780806255463	0
447	191702	44.785806255463	0
447	193090	44.790806255463	0
447	194258	44.796477773398	0
447	195024	44.801477773398	0
447	196563	44.80874862205	0
447	197238	44.81374862205	0
447	198630	44.81874862205	0
447	199304	44.82374862205	0
447	201057	44.831416475325	0
447	202363	44.836416475325	0
447	203015	44.841416475325	0
447	204052	44.846416475325	0
447	204996	44.851416475325	0
447	206243	44.856416475325	0
447	207909	44.863929817941	0
447	208884	44.868929817941	0
447	209876	44.873929817941	0
447	210936	44.880312135807	0
447	211919	44.885312135807	0
447	214234	44.898106129898	0
447	215134	44.903106129898	0
447	215919	44.908106129898	0
447	216577	44.913106129898	0
447	217123	44.918106129898	0
447	218123	44.923106129898	0
447	219717	44.936004192217	0
447	219836	44.941004192217	0
447	220367	44.946618718353	0
447	220776	44.951618718353	0
447	221287	44.956618718353	0
447	221804	44.961618718353	0
447	221923	44.966618718353	0
447	222336	44.972604113201	0
447	222337	44.977604113201	0
447	223621	45.000634569635	0
447	223622	45.005634569635	0
447	224278	45.059474576201	0
447	224677	45.064474576201	0
447	224693	45.505	1
447	225583	45.51	39
447	227514	45.515	0
447	228912	45.52	0
447	230440	45.526942783066	0
447	231499	45.531942783066	0
447	232732	45.536942783066	0
447	233769	45.541942783066	0
447	235434	45.547589460688	0
447	236656	45.552589460688	0
447	238160	45.557589460688	0
447	240203	45.567293322162	0
447	241233	45.572293322162	0
447	242676	45.578487531639	0
447	243718	45.583487531639	0
447	246654	45.595280829386	0
447	248062	45.600280829386	0
447	249374	45.605280829386	0
447	250475	45.610280829386	0
447	251929	45.617372758988	0
447	253003	45.622372758988	0
447	253941	45.627372758988	0
447	254987	45.632372758988	0
447	256266	45.637372758988	0
447	257547	45.643192509008	0
447	258687	45.648192509008	0
447	260376	45.660349104051	0
447	261271	45.665349104051	0
447	262464	45.67167502957	0
447	263720	45.67667502957	0
447	265126	45.682706489648	0
447	265785	45.687706489648	0
447	266684	45.692706489648	0
447	269316	45.703089772508	0
447	270008	45.708089772508	0
447	271171	45.714816211075	0
447	272060	45.719816211075	0
447	272837	45.725703367771	0
447	274120	45.730703367771	0
447	275024	45.735703367771	0
447	276558	45.74311962085	0
447	277515	45.74811962085	0
447	278415	45.75311962085	0
447	279417	45.75811962085	0
447	280436	45.76311962085	0
447	281329	45.76811962085	0
447	283685	45.782524786386	0
447	284211	45.787524786386	0
447	285384	45.792524786386	0
447	286316	45.797524786386	0
447	287378	45.802524786386	0
447	288414	45.807524786386	0
447	289175	45.812524786386	0
447	290452	45.818691555554	0
447	291495	45.823691555554	0
447	291885	45.828691555554	0
447	295339	45.857639660195	0
447	296005	45.862639660195	0
447	296919	45.867639660195	0
447	299994	45.889918557146	0
447	300389	45.894918557146	0
447	301416	45.903986773598	0
447	301926	45.908986773598	0
447	303207	45.920622060976	0
447	303483	45.925622060976	0
447	305053	45.935020965132	0
447	305059	45.940020965132	0
447	305584	45.945020965132	0
447	305585	45.950020965132	0
447	306646	45.959203735263	0
447	307396	45.964203735263	0
447	307519	45.969203735263	0
447	307931	45.974747748369	0
447	307932	45.979747748369	0
447	308987	45.988147751605	0
447	309262	45.993147751605	0
447	310783	46.016851772224	0
447	310784	46.021851772224	0
447	311337	46.049764780193	0
447	311341	46.054764780193	0
447	311878	46.062005486497	0
447	311879	46.067005486497	0
447	312010	46.505	1
447	313228	46.51	34
447	315669	46.515	0
447	316843	46.52	0
447	318350	46.525	0
447	320186	46.533881282412	0
447	321348	46.538881282412	0
447	322613	46.543881282412	0
447	324859	46.552837261468	0
447	326620	46.557837261468	0
447	327605	46.562837261468	0
447	328904	46.568378605521	0
447	329947	46.573378605521	0
447	331532	46.579728358762	0
447	332575	46.584728358762	0
447	337470	46.607001018282	0
447	338642	46.612001018282	0
447	340189	46.617001018282	0
447	341087	46.622001018282	0
447	342797	46.630648614228	0
447	343836	46.635648614228	0
447	345001	46.640648614228	0
447	346729	46.647710321605	0
447	347744	46.652710321605	0
447	348634	46.657710321605	0
447	351078	46.667427050602	0
447	352251	46.672427050602	0
447	353650	46.677427050602	0
447	354550	46.682427050602	0
447	355764	46.687427050602	0
447	356791	46.692802443787	0
447	357860	46.697802443787	0
447	358745	46.702802443787	0
447	359410	46.707802443787	0
447	360029	46.712802443787	0
447	361108	46.717802443787	0
447	362897	46.722802443787	0
447	363668	46.727802443787	0
447	365296	46.732802443787	0
447	366478	46.737802443787	0
447	367919	46.742802443787	0
447	368942	46.747802443787	0
447	369971	46.752802443787	0
447	370768	46.757802443787	0
447	371567	46.762802443787	0
447	372340	46.767802443787	0
447	373517	46.774655893648	0
447	374718	46.779655893648	0
447	375391	46.784655893648	0
447	376460	46.789655893648	0
447	377090	46.794655893648	0
447	378191	46.800950435028	0
447	378736	46.805950435028	0
447	379638	46.810950435028	0
447	380415	46.815950435028	0
447	381595	46.820950435028	0
447	382131	46.825950435028	0
447	383571	46.841563449018	0
447	384639	46.846563449018	0
447	385044	46.851563449018	0
447	385689	46.865845216994	0
447	386099	46.870845216994	0
447	386635	46.883054437946	0
447	386636	46.888054437946	0
447	387272	46.896667397243	0
447	387688	46.901667397243	0
447	387689	46.906667397243	0
447	388212	46.92027189004	0
447	388213	46.92527189004	0
447	388751	46.948127404811	0
447	388752	46.953127404811	0
447	389300	46.967831432315	0
447	389301	46.972831432315	0
447	389536	47.505	1
447	390259	47.51	30
447	392376	47.515	0
447	394044	47.52	0
447	395236	47.525	0
447	396420	47.53	0
447	398068	47.535	0
447	399139	47.54	0
447	400062	47.545	0
447	401376	47.55	0
447	402764	47.555	0
447	403826	47.56	0
447	404885	47.565	0
447	407170	47.574814974782	0
447	408425	47.579814974782	0
447	409382	47.584814974782	0
447	410436	47.589814974782	0
447	411580	47.594814974782	0
447	412514	47.599814974782	0
447	413963	47.606543442734	0
447	414991	47.611543442734	0
447	416216	47.616543442734	0
447	417771	47.623458617145	0
447	418410	47.628458617145	0
447	419609	47.634026222272	0
447	420776	47.639026222272	0
447	421789	47.644026222272	0
447	424123	47.655002633625	0
447	425298	47.660002633625	0
447	426346	47.665002633625	0
447	427347	47.670002633625	0
447	430002	47.687821950736	0
447	430647	47.692821950736	0
447	431804	47.697821950736	0
447	433204	47.702821950736	0
447	434263	47.709461600436	0
447	434927	47.714461600436	0
447	436633	47.719461600436	0
447	437443	47.724461600436	0
447	438079	47.729461600436	0
447	438911	47.734461600436	0
447	439303	47.739461600436	0
447	441123	47.753084439547	0
447	442154	47.758084439547	0
447	442915	47.763084439547	0
447	443953	47.768186150484	0
447	444830	47.773186150484	0
447	444952	47.778186150484	0
447	445487	47.783524243411	0
447	445909	47.788524243411	0
447	446031	47.793524243411	0
447	446594	47.800054596317	0
447	447574	47.805054596317	0
447	447575	47.810054596317	0
447	449832	47.841420469108	0
447	450514	47.846420469108	0
447	450769	47.851420469108	0
447	451422	47.869913145638	0
447	451845	47.874913145638	0
447	451849	47.879913145638	0
447	452371	47.886513154285	0
447	452642	47.891513154285	0
447	452918	47.896513154285	0
447	453584	47.91971318052	0
447	453984	47.92471318052	0
447	454210	48.505	1
447	454335	48.51	0
447	456073	48.516142741283	38
447	458124	48.521142741283	0
447	460100	48.529393152419	0
447	461623	48.534393152419	0
447	463056	48.539393152419	0
447	464669	48.544393152419	0
447	466396	48.549393152419	0
447	467956	48.554393152419	0
447	469465	48.559393152419	0
447	470982	48.564393152419	0
447	472291	48.569393152419	0
447	473774	48.574393152419	0
447	475068	48.579393152419	0
447	476322	48.584393152419	0
447	477896	48.589867892766	0
447	478289	48.594867892766	0
447	481305	48.607181212927	0
447	482223	48.612181212927	0
447	483752	48.617777343014	0
447	484274	48.622777343014	0
447	486112	48.627993908935	0
447	487052	48.632993908935	0
447	488234	48.637993908935	0
447	493084	48.662478213644	0
447	494621	48.667478213644	0
447	495588	48.672478213644	0
447	497447	48.683617923112	0
447	498383	48.688617923112	0
447	500765	48.699012902364	0
447	501765	48.704012902364	0
447	502590	48.709012902364	0
447	503879	48.714019923487	0
447	504920	48.719019923487	0
447	506508	48.730928100848	0
447	507665	48.735928100848	0
447	508355	48.740928100848	0
447	509548	48.745928100848	0
447	510784	48.75637263187	0
447	511713	48.76137263187	0
447	512999	48.76637263187	0
447	513762	48.77137263187	0
447	515564	48.77749194909	0
447	516751	48.78249194909	0
447	517534	48.78749194909	0
447	518589	48.79249194909	0
447	519919	48.79749194909	0
447	520935	48.80249194909	0
447	521477	48.80749194909	0
447	522265	48.81249194909	0
447	523067	48.81749194909	0
447	524495	48.826507601951	0
447	525283	48.831507601951	0
447	526374	48.836527752858	0
447	526944	48.841527752858	0
447	527976	48.846527752858	0
447	528473	48.851527752858	0
447	530193	48.859819649974	0
447	530195	48.864819649974	0
447	531974	48.879333966776	0
447	532636	48.884333966776	0
447	533173	48.889333966776	0
447	534246	48.894841072564	0
447	534929	48.899841072564	0
447	536088	48.904841072564	0
447	536327	48.909841072564	0
447	537819	48.923396767115	0
447	537944	48.928396767115	0
447	538876	48.933826549131	0
447	538877	48.938826549131	0
447	539428	48.947215475213	0
447	539429	48.952215475213	0
447	539978	48.965749088878	0
447	539979	48.970749088878	0
447	540788	49.505	1
447	540913	49.51	0
447	542189	49.515570752466	22
447	543718	49.520570752466	0
447	544371	49.525570752466	0
447	545394	49.530639262136	0
447	546551	49.535639262136	0
447	547692	49.540639262136	0
447	548965	49.545639262136	0
447	550248	49.550639262136	0
447	551030	49.555639262136	0
447	551702	49.560639262136	0
447	552847	49.565639262136	0
447	553878	49.570639262136	0
447	555182	49.578554591986	0
447	556125	49.583554591986	0
447	556868	49.588554591986	0
447	558682	49.599890090511	0
447	559169	49.604890090511	0
447	560331	49.615218618078	0
447	561239	49.620218618078	0
447	562001	49.625218618078	0
447	563189	49.630218618078	0
447	563719	49.635218618078	0
447	564735	49.640218618078	0
447	565252	49.645218618078	0
447	565655	49.650218618078	0
447	566170	49.655218618078	0
447	567207	49.664469250896	0
447	567726	49.669469250896	0
447	568257	49.674469250896	0
447	568785	49.679469250896	0
447	569319	49.684469250896	0
447	569818	49.689469250896	0
447	570593	49.6963751783	0
447	570848	49.7013751783	0
447	571115	49.7063751783	0
447	571482	49.7113751783	0
447	571879	49.7163751783	0
447	572003	49.7213751783	0
447	573068	49.726754120124	0
447	573466	49.731754120124	0
447	573990	49.736754120124	0
447	574998	49.743607280627	0
447	575529	49.748607280627	0
447	576061	49.753607280627	0
447	576578	49.758607280627	0
447	577598	49.7996970916	0
447	577599	49.8046970916	0
447	577872	50.505	1
447	578282	50.51	27
447	579632	50.515	0
447	580979	50.52	0
447	582582	50.525	0
447	583871	50.53	0
447	584660	50.535	0
447	585449	50.54	0
447	586772	50.546581125974	0
447	587670	50.551581125974	0
447	589489	50.560938120613	0
447	590647	50.565938120613	0
447	593387	50.582613142065	0
447	594438	50.587613142065	0
447	595243	50.592613142065	0
447	596261	50.597613142065	0
447	597785	50.607653039815	0
447	598604	50.612653039815	0
447	599400	50.617653039815	0
447	600720	50.622853933215	0
447	601642	50.627853933215	0
447	602784	50.632853933215	0
447	603911	50.638934362203	0
447	604870	50.643934362203	0
447	605402	50.648934362203	0
447	606867	50.658554050549	0
447	607767	50.663554050549	0
447	610368	50.67902239429	0
447	610785	50.68402239429	0
447	611862	50.68902239429	0
447	613002	50.69402239429	0
447	613952	50.69902239429	0
447	614475	50.70402239429	0
447	616066	50.715209338255	0
447	616970	50.720209338255	0
447	617789	50.726980599975	0
447	618714	50.731980599975	0
447	619589	50.736980599975	0
447	620475	50.741980599975	0
447	621137	50.746980599975	0
447	621918	50.751980599975	0
447	622938	50.756980599975	0
447	623698	50.762426055838	0
447	624519	50.767426055838	0
447	626534	50.779403518108	0
447	627511	50.784403518108	0
447	628397	50.79512567893	0
447	628924	50.80012567893	0
447	629533	50.80512567893	0
447	631552	50.817120683572	0
447	632336	50.822120683572	0
447	633380	50.827120683572	0
447	633759	50.832120683572	0
447	634789	50.838155839091	0
447	635307	50.843155839091	0
447	636732	50.854331541946	0
447	637514	50.859331541946	0
447	638034	50.864331541946	0
447	638548	50.872032714484	0
447	638551	50.877032714484	0
447	639607	50.885563376895	0
447	640123	50.890563376895	0
447	640647	50.906307219765	0
447	640648	50.911307219765	0
447	641037	51.505	1
447	642102	51.51	31
447	643647	51.515	0
447	644669	51.52	0
447	648834	51.541874565482	0
447	650138	51.546874565482	0
447	651774	51.551874565482	0
447	652978	51.556874565482	0
447	654399	51.561874565482	0
447	656009	51.566874565482	0
447	657547	51.571874565482	0
447	658587	51.576874565482	0
447	659163	51.581874565482	0
447	660558	51.586874565482	0
447	661876	51.591874565482	0
447	663596	51.597491934961	0
447	664750	51.602491934961	0
447	665779	51.608000310507	0
447	666923	51.613000310507	0
447	668204	51.620470239441	0
447	669023	51.625470239441	0
447	670339	51.630470239441	0
447	670744	51.635470239441	0
447	675859	51.659221806376	0
447	677271	51.664221806376	0
447	678154	51.669221806376	0
447	680938	51.68381633174	0
447	682333	51.68881633174	0
447	685841	51.708550181724	0
447	686908	51.713550181724	0
447	687430	51.718550181724	0
447	688632	51.723923379227	0
447	690047	51.728923379227	0
447	691001	51.733923379227	0
447	691916	51.738923379227	0
447	692733	51.743923379227	0
447	693547	51.748923379227	0
447	694855	51.754108418073	0
447	695894	51.759108418073	0
447	697060	51.764826971282	0
447	697710	51.769826971282	0
447	699170	51.778070221828	0
447	699809	51.783070221828	0
447	700861	51.788821879741	0
447	701529	51.793821879741	0
447	702039	51.798821879741	0
447	702042	51.803821879741	0
447	703635	51.81755657511	0
447	704237	51.82255657511	0
447	704673	51.829133826999	0
447	705194	51.834133826999	0
447	706254	51.841812530481	0
447	706520	51.846812530481	0
447	706899	51.851812530481	0
447	707687	51.856812530481	0
447	707831	51.861812530481	0
447	708884	51.86944455881	0
447	709530	51.87444455881	0
447	710059	51.87944455881	0
447	710851	51.88444455881	0
447	711524	51.88944455881	0
447	711525	51.89444455881	0
447	712583	51.926134753973	0
447	713116	51.931134753973	0
447	713120	51.936134753973	0
447	713380	52.505	1
447	713387	52.51	0
447	715468	52.51859816712	37
447	717105	52.52359816712	0
447	720006	52.531988851809	0
447	721666	52.536988851809	0
447	722912	52.541988851809	0
447	724491	52.546988851809	0
447	726761	52.551988851809	0
447	728242	52.556988851809	0
447	730169	52.561988851809	0
447	731774	52.566988851809	0
447	733099	52.571988851809	0
447	734293	52.576988851809	0
447	736545	52.585378810454	0
447	738455	52.590378810454	0
447	739780	52.595378810454	0
447	742087	52.6009864348	0
447	742642	52.6059864348	0
447	743585	52.6109864348	0
447	744539	52.616754092665	0
447	746095	52.621754092665	0
447	747278	52.626754092665	0
447	748108	52.631754092665	0
447	751567	52.648489982875	0
447	752757	52.653489982875	0
447	754449	52.658489982875	0
447	755750	52.663489982875	0
447	758039	52.672894337356	0
447	759455	52.677894337356	0
447	760428	52.682894337356	0
447	761344	52.687894337356	0
447	763715	52.699590933199	0
447	764522	52.704590933199	0
447	766258	52.714318449912	0
447	767319	52.719318449912	0
447	768787	52.724318449912	0
447	769475	52.729318449912	0
447	771452	52.739214947906	0
447	772409	52.744214947906	0
447	773340	52.749214947906	0
447	773751	52.754214947906	0
447	774935	52.761102357398	0
447	775695	52.766102357398	0
447	777733	52.777016189014	0
447	778829	52.782016189014	0
447	779624	52.787016189014	0
447	780865	52.792016189014	0
447	781804	52.797016189014	0
447	783777	52.807505086377	0
447	785488	52.812505086377	0
447	786313	52.817505086377	0
447	787360	52.822505086377	0
447	788155	52.827505086377	0
447	789200	52.834690135851	0
447	790271	52.839690135851	0
447	790832	52.844690135851	0
447	791492	52.849690135851	0
447	792937	52.855711344242	0
447	793461	52.860711344242	0
447	795100	52.872030371718	0
447	795735	52.877030371718	0
447	797429	52.885585143943	0
447	798092	52.890585143943	0
447	799671	52.896863371103	0
447	800621	52.901863371103	0
447	801443	52.906863371103	0
447	801966	52.911863371103	0
447	803314	52.921425002985	0
447	803989	52.926425002985	0
447	806585	52.950256825502	0
447	806586	52.955256825502	0
447	807910	53.001175120774	0
447	807911	53.006175120774	0
447	808434	53.014903414085	0
447	808435	53.019903414085	0
447	808472	53.505	1
447	808482	53.51	0
447	810366	53.518028362319	38
447	812137	53.523028362319	0
447	813944	53.528028362319	0
447	815707	53.533028362319	0
447	817021	53.538028362319	0
447	818122	53.543028362319	0
447	819581	53.548717272021	0
447	821423	53.553717272021	0
447	823032	53.558717272021	0
447	824532	53.563717272021	0
447	826002	53.568717272021	0
447	827341	53.573717272021	0
447	828831	53.578717272021	0
447	830651	53.583717272021	0
447	832342	53.588717272021	0
447	833662	53.593717272021	0
447	835003	53.598717272021	0
447	836537	53.603717272021	0
447	838255	53.608717272021	0
447	839600	53.613717272021	0
447	841591	53.618717272021	0
447	843285	53.623717272021	0
447	844277	53.628717272021	0
447	845635	53.633717272021	0
447	847125	53.638717272021	0
447	848211	53.643717272021	0
447	850051	53.651362840723	0
447	851458	53.656362840723	0
447	852558	53.661362840723	0
447	853452	53.666362840723	0
447	855172	53.67257962494	0
447	856265	53.67757962494	0
447	857247	53.68257962494	0
447	858220	53.68757962494	0
447	861743	53.703293763851	0
447	862918	53.708293763851	0
447	863595	53.713293763851	0
447	864408	53.718293763851	0
447	866027	53.723293763851	0
447	867572	53.728293763851	0
447	868662	53.733293763851	0
447	869731	53.738293763851	0
447	870677	53.743293763851	0
447	871867	53.748293763851	0
447	873193	53.753293763851	0
447	875036	53.759332349383	0
447	876361	53.764332349383	0
447	877541	53.769332349383	0
447	878760	53.774332349383	0
447	879834	53.780096350833	0
447	880769	53.785096350833	0
447	884037	53.807164178443	0
447	884811	53.812164178443	0
447	885351	53.817164178443	0
447	886162	53.822164178443	0
447	887386	53.834045505368	0
447	888308	53.839045505368	0
447	888563	53.844045505368	0
447	890039	53.852334401196	0
447	890718	53.857334401196	0
447	891808	53.863748586893	0
447	892216	53.868748586893	0
447	892756	53.875594032619	0
447	893676	53.880594032619	0
447	895707	53.906582423345	0