file 212188 1353340724                                          
version 2
run AODVScenario_1f-2-20121119-15:58:32-2300
attr configname AODVScenario_1f
attr datetime 20121119-15:58:32
attr experiment AODVScenario_1f
attr inifile AODV.ini
attr iterationvars $numNodes=52
attr iterationvars2 "$numNodes=52, $repetition=0"
attr measurement $numNodes=52
attr network csma802154net
attr numNodes 52
attr processid 2300
attr repetition 0
attr replication #0
attr resultdir results
attr runnumber 2
attr seedset 2

vector 219  csma802154net.dataCentricNetworkMan  RREQPacketFrequency  ETV
vector 220  csma802154net.dataCentricNetworkMan  RERRPacketFrequency  ETV
vector 221  csma802154net.dataCentricNetworkMan  DiscoveryPacketFrequency  ETV
vector 222  csma802154net.dataCentricNetworkMan  RegisterPacketFrequency  ETV
vector 223  csma802154net.dataCentricNetworkMan  RReplyPacketFrequency  ETV
vector 224  csma802154net.dataCentricNetworkMan  AODVDataPacketFrequency  ETV
vector 231  csma802154net.dataCentricNetworkMan  pendingRegistrationVector  ETV
vector 230  csma802154net.dataCentricNetworkMan  pendingRREQVector  ETV
vector 228  csma802154net.dataCentricNetworkMan  PendingDataPacketsVector  ETV
vector 254  csma802154net.fixhost[22].udpApp  "End-to-end delay"  ETV
vector 216  csma802154net.dataCentricNetworkMan  dataPacketE2EDelay  ETV
vector 248  csma802154net.fixhost[16].udpApp  "End-to-end delay"  ETV
vector 257  csma802154net.fixhost[25].udpApp  "End-to-end delay"  ETV
vector 237  csma802154net.fixhost[5].udpApp  "End-to-end delay"  ETV
vector 236  csma802154net.fixhost[4].udpApp  "End-to-end delay"  ETV
vector 240  csma802154net.fixhost[8].udpApp  "End-to-end delay"  ETV
vector 238  csma802154net.fixhost[6].udpApp  "End-to-end delay"  ETV
vector 249  csma802154net.fixhost[17].udpApp  "End-to-end delay"  ETV
vector 244  csma802154net.fixhost[12].udpApp  "End-to-end delay"  ETV
vector 234  csma802154net.fixhost[2].udpApp  "End-to-end delay"  ETV
vector 242  csma802154net.fixhost[10].udpApp  "End-to-end delay"  ETV
vector 247  csma802154net.fixhost[15].udpApp  "End-to-end delay"  ETV
216	2081 7010 239926 1168190 70.011196042742 7273.078612173423 156 0.010876042743 0.105668173423 6.570377415242 0.34605326103596
219	9091 30298 409 1168319 1.005 7273.084732148542 1086 0 56 661 20239
220	39389 30273 409 1168319 1.005 7273.084732148542 1086 0 0 0 0
221	69662 30273 409 1168319 1.005 7273.084732148542 1086 0 0 0 0
222	99935 30273 409 1168319 1.005 7273.084732148542 1086 0 1 12 12
223	130208 30285 409 1168319 1.005 7273.084732148542 1086 0 52 828 15942
224	160493 30286 409 1168319 1.005 7273.084732148542 1086 0 52 1010 14786
228	190779 12611 239180 1168190 70 7273.078612173423 416 0 3 520 1040
230	203390 1212 11808 228734 43.50001 54.525499843229 44 0 1 16 16
231	204602 576 11803 236126 43.5 54.61889109967 24 0 1 12 12
234	205178 581 249681 1166073 73.029276099327 7273.030876099328 13 0.028956099328 0.065540099328 0.457653419901 0.017246017173438
236	205759 585 243112 1159890 71.032476131953 7271.035604131954 13 0.020716066014 0.044140098985 0.368029220851 0.011036758485893
237	206344 585 242813 1159589 71.030236144825 7271.033116144826 13 0.026436111857 0.063372144826 0.515429472904 0.022735616452818
238	206929 585 246287 1162246 72.051316143098 7272.031236080395 13 0.022276080395 0.051316143098 0.412749327298 0.013780021177248
240	207514 583 243664 1160456 71.041676178971 7271.046084178972 13 0.037164152471 0.085060126726 0.721285933648 0.043820830005623
242	208097 585 250786 1167316 73.060204134439 7273.047404134438 13 0.036916134439 0.073500134438 0.739125747697 0.044000557213149
244	208682 585 247450 1163954 72.074452184653 7272.056932121026 13 0.036524121025 0.074708121025 0.671565892393 0.036552089223362
247	209267 585 251663 1168190 73.076692173422 7273.078612173423 13 0.051516198246 0.105668173423 1.00228630413 0.08105027086827
248	209852 585 240465 1156917 70.016884033668 7270.019124033667 13 0.011836033669 0.045292033669 0.301948437689 0.0088115061082331
249	210437 581 247179 1163684 72.066556214338 7272.049924153953 13 0.046652153952 0.079284214338 0.807198210643 0.051424933508596
254	211018 585 239926 1156580 70.011196042742 7270.013756042742 13 0.010876042743 0.035764042743 0.198452555664 0.0035159358930365
257	211603 585 240730 1157501 70.019436068647 7270.048164068647 13 0.019436068647 0.048164068647 0.374652892424 0.01207872492629
