file 194280 1353323069                                          
version 2
run AODVScenario_1f-0-20121119-11:04:17-2392
attr configname AODVScenario_1f
attr datetime 20121119-11:04:17
attr experiment AODVScenario_1f
attr inifile AODV.ini
attr iterationvars $numNodes=50
attr iterationvars2 "$numNodes=50, $repetition=0"
attr measurement $numNodes=50
attr network csma802154net
attr numNodes 50
attr processid 2392
attr repetition 0
attr replication #0
attr resultdir results
attr runnumber 0
attr seedset 0

vector 211  csma802154net.dataCentricNetworkMan  RREQPacketFrequency  ETV
vector 212  csma802154net.dataCentricNetworkMan  RERRPacketFrequency  ETV
vector 213  csma802154net.dataCentricNetworkMan  DiscoveryPacketFrequency  ETV
vector 214  csma802154net.dataCentricNetworkMan  RegisterPacketFrequency  ETV
vector 215  csma802154net.dataCentricNetworkMan  RReplyPacketFrequency  ETV
vector 216  csma802154net.dataCentricNetworkMan  AODVDataPacketFrequency  ETV
vector 223  csma802154net.dataCentricNetworkMan  pendingRegistrationVector  ETV
vector 222  csma802154net.dataCentricNetworkMan  pendingRREQVector  ETV
vector 220  csma802154net.dataCentricNetworkMan  PendingDataPacketsVector  ETV
vector 230  csma802154net.fixhost[6].udpApp  "End-to-end delay"  ETV
vector 208  csma802154net.dataCentricNetworkMan  dataPacketE2EDelay  ETV
vector 243  csma802154net.fixhost[19].udpApp  "End-to-end delay"  ETV
vector 244  csma802154net.fixhost[20].udpApp  "End-to-end delay"  ETV
vector 233  csma802154net.fixhost[9].udpApp  "End-to-end delay"  ETV
vector 236  csma802154net.fixhost[12].udpApp  "End-to-end delay"  ETV
vector 241  csma802154net.fixhost[17].udpApp  "End-to-end delay"  ETV
vector 234  csma802154net.fixhost[10].udpApp  "End-to-end delay"  ETV
vector 240  csma802154net.fixhost[16].udpApp  "End-to-end delay"  ETV
vector 235  csma802154net.fixhost[11].udpApp  "End-to-end delay"  ETV
vector 225  csma802154net.fixhost[1].udpApp  "End-to-end delay"  ETV
vector 226  csma802154net.fixhost[2].udpApp  "End-to-end delay"  ETV
vector 227  csma802154net.fixhost[3].udpApp  "End-to-end delay"  ETV
208	2081 6948 235247 1109126 70.032596055169 7273.043244151774 156 0.011196035992 0.111540161078 5.452254674525 0.24365240534256
211	9029 27350 537 1109270 1.005 7273.05001 1005 0 47 666 17740
212	36379 27322 537 1109270 1.005 7273.05001 1005 0 0 0 0
213	63701 27322 537 1109270 1.005 7273.05001 1005 0 0 0 0
214	91023 27322 537 1109270 1.005 7273.05001 1005 0 1 12 12
215	118345 27334 537 1109270 1.005 7273.05001 1005 0 59 895 17681
216	145679 27335 537 1109270 1.005 7273.05001 1005 0 50 967 15527
220	173014 12526 234217 1109126 70 7273.043244151774 416 0 3 520 1040
222	185540 1216 11670 218770 43.50001 54.678926626106 44 0 1 12 12
223	186756 576 11665 220045 43.5 54.689921730602 24 0 1 12 12
225	187332 584 243213 1108299 73.017236051494 7273.026436101779 13 0.016276051494 0.029956101779 0.259628845423 0.0054448325267364
226	187916 584 244302 1108847 73.038164119586 7273.036916140095 13 0.028956114952 0.061100094445 0.586621536086 0.028262216453563
227	188500 584 244578 1109126 73.040332131265 7273.043244151774 13 0.034356151774 0.084460107384 0.676221672445 0.037504545322295
230	189084 572 235247 1099041 70.032596055169 7270.019404055169 13 0.01659605517 0.04326005517 0.292044717202 0.0074533635038097
233	189656 582 237520 1101714 71.014716035992 7271.015996035992 13 0.011196035992 0.015996035992 0.178828467892 0.0024894620406571
234	190238 570 240572 1104739 72.04047609934 7272.030236099339 13 0.027676099338 0.04047609934 0.405405291413 0.012786320753384
235	190808 584 241980 1105691 72.068236154101 7272.058924128957 13 0.032116128958 0.081572128959 0.582789726741 0.02888380737302
236	191392 564 237777 1101971 71.01819604971 7271.02075604971 13 0.01499604971 0.02075604971 0.237508646225 0.0043659137408917
240	191956 580 241432 1106533 72.05731618622 7272.088572155724 13 0.043524155724 0.111540161078 0.812838090764 0.05618803977315
241	192536 576 238039 1102233 71.023276071402 7271.024236071402 13 0.019436071402 0.024876071402 0.29394892822 0.0066768133847429
243	193112 584 236320 1100520 70.046844097286 7270.054132097287 13 0.025156097289 0.057972097287 0.514429264746 0.022093445967482
244	193696 584 236590 1099858 70.051324114411 7270.027644114412 13 0.027324114414 0.076532114413 0.611989487368 0.031503644502832
