file 264475 1353342455                                          
version 2
run AODVScenario_1f-62-20121119-16:26:53-2212
attr configname AODVScenario_1f
attr datetime 20121119-16:26:53
attr experiment AODVScenario_1f
attr inifile AODV.ini
attr iterationvars $numNodes=112
attr iterationvars2 "$numNodes=112, $repetition=0"
attr measurement $numNodes=112
attr network csma802154net
attr numNodes 112
attr processid 2212
attr repetition 0
attr replication #0
attr resultdir results
attr runnumber 62
attr seedset 62

vector 459  csma802154net.dataCentricNetworkMan  RREQPacketFrequency  ETV
vector 460  csma802154net.dataCentricNetworkMan  RERRPacketFrequency  ETV
vector 461  csma802154net.dataCentricNetworkMan  DiscoveryPacketFrequency  ETV
vector 462  csma802154net.dataCentricNetworkMan  RegisterPacketFrequency  ETV
vector 463  csma802154net.dataCentricNetworkMan  RReplyPacketFrequency  ETV
vector 464  csma802154net.dataCentricNetworkMan  AODVDataPacketFrequency  ETV
vector 471  csma802154net.dataCentricNetworkMan  pendingRegistrationVector  ETV
vector 470  csma802154net.dataCentricNetworkMan  pendingRREQVector  ETV
vector 468  csma802154net.dataCentricNetworkMan  PendingDataPacketsVector  ETV
vector 477  csma802154net.fixhost[5].udpApp  "End-to-end delay"  ETV
vector 456  csma802154net.dataCentricNetworkMan  dataPacketE2EDelay  ETV
vector 481  csma802154net.fixhost[9].udpApp  "End-to-end delay"  ETV
vector 494  csma802154net.fixhost[22].udpApp  "End-to-end delay"  ETV
vector 501  csma802154net.fixhost[29].udpApp  "End-to-end delay"  ETV
vector 490  csma802154net.fixhost[18].udpApp  "End-to-end delay"  ETV
vector 482  csma802154net.fixhost[10].udpApp  "End-to-end delay"  ETV
vector 476  csma802154net.fixhost[4].udpApp  "End-to-end delay"  ETV
vector 484  csma802154net.fixhost[12].udpApp  "End-to-end delay"  ETV
456	1806 4720 1273674 3145096 70.017204036529 7273.072292124681 104 0.00991603653 0.10295607204 3.392864679348 0.13768360681654
459	6526 40355 889 3145370 1.005 7273.082292124681 1398 0 182 3343 277847
460	46881 40297 889 3145370 1.005 7273.082292124681 1398 0 0 0 0
461	87178 40297 889 3145370 1.005 7273.082292124681 1398 0 0 0 0
462	127475 40297 889 3145370 1.005 7273.082292124681 1398 0 1 12 12
463	167772 40314 889 3145370 1.005 7273.082292124681 1398 0 140 1872 101360
464	208086 40316 889 3145370 1.005 7273.082292124681 1398 0 126 1479 91887
468	248402 9525 1271644 3145096 70 7273.072292124681 312 0 3 286 468
470	257927 1357 53712 1217783 43.50001 54.83600821858 48 0 1 19 19
471	259284 471 53707 1267807 43.5 55.192246381907 20 0 5 44 138
476	259755 595 1286867 3145096 73.043356094442 7273.072292124681 13 0.029276094442 0.072292124681 0.497997409189 0.020601730791944
477	260350 581 1273674 3130061 70.017204036529 7270.01912403653 13 0.00991603653 0.047852036529 0.291564474883 0.0085477879092468
481	260931 595 1274240 3129487 70.024844065417 7270.016276065419 13 0.016276065419 0.043084065419 0.279956850443 0.0066182736367559
482	261526 575 1282487 3138284 72.10295607204 7272.02199607204 13 0.020076072039 0.10295607204 0.372348936515 0.016689740255743
484	262101 591 1288685 3143660 73.076772123977 7273.042956152969 13 0.038124123976 0.076772123977 0.649397785654 0.03416691853638
490	262692 595 1279437 3133639 71.039132065728 7271.020396065727 13 0.018156065728 0.039132065728 0.314636854458 0.0081377501125893
494	263287 595 1277756 3134709 71.025196078547 7271.026156078547 13 0.020076078547 0.052572078547 0.413973021104 0.014968052056071
501	263882 593 1278299 3135252 71.027716103624 7271.028676103624 13 0.027716103624 0.076532103621 0.572989347102 0.027953353517805
