version 2
run AODVScenario_1f-18-20121119-11:09:35-3312
attr configname AODVScenario_1f
attr datetime 20121119-11:09:35
attr experiment AODVScenario_1f
attr inifile AODV.ini
attr iterationvars $numNodes=68
attr iterationvars2 "$numNodes=68, $repetition=0"
attr measurement $numNodes=68
attr network csma802154net
attr numNodes 68
attr processid 3312
attr repetition 0
attr replication #0
attr resultdir results
attr runnumber 18
attr seedset 18

vector 283  csma802154net.dataCentricNetworkMan  RREQPacketFrequency  ETV
vector 284  csma802154net.dataCentricNetworkMan  RERRPacketFrequency  ETV
vector 285  csma802154net.dataCentricNetworkMan  DiscoveryPacketFrequency  ETV
vector 286  csma802154net.dataCentricNetworkMan  RegisterPacketFrequency  ETV
vector 287  csma802154net.dataCentricNetworkMan  RReplyPacketFrequency  ETV
vector 288  csma802154net.dataCentricNetworkMan  AODVDataPacketFrequency  ETV
vector 295  csma802154net.dataCentricNetworkMan  pendingRegistrationVector  ETV
vector 294  csma802154net.dataCentricNetworkMan  pendingRREQVector  ETV
vector 289  csma802154net.dataCentricNetworkMan  AODVDataLineBreakVector  ETV
vector 292  csma802154net.dataCentricNetworkMan  PendingDataPacketsVector  ETV
vector 308  csma802154net.fixhost[12].udpApp  "End-to-end delay"  ETV
vector 280  csma802154net.dataCentricNetworkMan  dataPacketE2EDelay  ETV
vector 311  csma802154net.fixhost[15].udpApp  "End-to-end delay"  ETV
vector 300  csma802154net.fixhost[4].udpApp  "End-to-end delay"  ETV
vector 305  csma802154net.fixhost[9].udpApp  "End-to-end delay"  ETV
vector 307  csma802154net.fixhost[11].udpApp  "End-to-end delay"  ETV
vector 309  csma802154net.fixhost[13].udpApp  "End-to-end delay"  ETV
vector 301  csma802154net.fixhost[5].udpApp  "End-to-end delay"  ETV
vector 302  csma802154net.fixhost[6].udpApp  "End-to-end delay"  ETV
vector 306  csma802154net.fixhost[10].udpApp  "End-to-end delay"  ETV
vector 303  csma802154net.fixhost[7].udpApp  "End-to-end delay"  ETV
vector 304  csma802154net.fixhost[8].udpApp  "End-to-end delay"  ETV
vector 312  csma802154net.fixhost[16].udpApp  "End-to-end delay"  ETV
280	574842	70.018516055844	0.018516055844
280	575222	70.022636081208	0.022636081208
280	576121	70.051012047982	0.051012047982
280	577013	71.008356015895	0.008356015895
280	577373	71.011836023411	0.011836023411
280	577745	71.016916034255	0.016916034255
280	579020	72.014076044205	0.014076044205
280	580151	72.027076094503	0.027076094503
280	580873	72.033724110945	0.033724110945
280	582644	73.016276052865	0.016276052865
280	583006	73.040524065353	0.040524065353
280	583382	73.045924092302	0.045924092302
280	668136	670.016916047983	0.016916047983
280	668505	670.021964055844	0.021964055844
280	668882	670.027684081209	0.027684081209
280	669776	671.008356015895	0.008356015895
280	670136	671.012796023411	0.012796023411
280	670508	671.016596034255	0.016596034255
280	671783	672.013116044205	0.013116044205
280	673080	672.025156094504	0.025156094504
280	674173	672.050684110945	0.050684110945
280	675944	673.018836052865	0.018836052865
280	676306	673.044044065353	0.044044065353
280	676682	673.049124092302	0.049124092302
280	761422	1270.018516047983	0.018516047983
280	761791	1270.023884055844	0.023884055844
280	762168	1270.027364081209	0.027364081209
280	763063	1271.010276015895	0.010276015895
280	763422	1271.013756023411	0.013756023411
280	763794	1271.017556034255	0.017556034255
280	765069	1272.012796044205	0.012796044205
280	766356	1272.026116110945	0.026116110945
280	767089	1272.056692094504	0.056692094504
280	768696	1273.017556052865	0.017556052865
280	769053	1273.023884065353	0.023884065353
280	769430	1273.031204092302	0.031204092302
280	854390	1870.016916047983	0.016916047983
280	854764	1870.040844055844	0.040844055844
280	855140	1870.044964081208	0.044964081208
280	856034	1871.008676015895	0.008676015895
280	856394	1871.012796023411	0.012796023411
280	856766	1871.017876034255	0.017876034255
280	858041	1872.013756044205	0.013756044205
280	859343	1872.026436094502	0.026436094502
280	860071	1872.054772110943	0.054772110943
280	861684	1873.015636052863	0.015636052863
280	862035	1873.017556065351	0.017556065351
280	862411	1873.0226360923	0.0226360923
280	947147	2470.018196055844	0.018196055844
280	947531	2470.021004047983	0.021004047983
280	947896	2470.023276081209	0.023276081209
280	948790	2471.007396015895	0.007396015895
280	949150	2471.011836023411	0.011836023411
280	949522	2471.016276034255	0.016276034255
280	950797	2472.013436044205	0.013436044205
280	952307	2472.029244110943	0.029244110943
280	952665	2472.034292094504	0.034292094504
280	954272	2473.016276052865	0.016276052865
280	954629	2473.022284065353	0.022284065353
280	955005	2473.028004092302	0.028004092302
280	1039740	3070.018196055844	0.018196055844
280	1040118	3070.020756047983	0.020756047983
280	1040486	3070.023596081209	0.023596081209
280	1041380	3071.007076015895	0.007076015895
280	1041740	3071.011516023411	0.011516023411
280	1042112	3071.016596034255	0.016596034255
280	1043387	3072.011516044205	0.011516044205
280	1044898	3072.027324110944	0.027324110944
280	1045255	3072.034612094504	0.034612094504
280	1046865	3073.016596052865	0.016596052865
280	1047218	3073.019084065353	0.019084065353
280	1047595	3073.027044092302	0.027044092302
280	1132399	3670.017876055842	0.017876055842
280	1132780	3670.022316081207	0.022316081207
280	1133155	3670.026052047981	0.026052047981
280	1134047	3671.009636015895	0.009636015895
280	1134408	3671.015036023411	0.015036023411
280	1134780	3671.020116034255	0.020116034255
280	1136055	3672.013116044205	0.013116044205
280	1137557	3672.029316110945	0.029316110945
280	1137911	3672.031556094504	0.031556094504
280	1139520	3673.017876065353	0.017876065353
280	1139900	3673.022316092302	0.022316092302
280	1140273	3673.034372052864	0.034372052864
280	1224999	4270.016276047983	0.016276047983
280	1225362	4270.018124055842	0.018124055842
280	1225740	4270.025124081206	0.025124081206
280	1226635	4271.010276015894	0.010276015894
280	1226994	4271.01503602341	0.01503602341
280	1227366	4271.018516034253	0.018516034253
280	1228641	4272.012476044205	0.012476044205
280	1229776	4272.025156110944	0.025156110944
280	1230499	4272.031484094502	0.031484094502
280	1232106	4273.020756065352	0.020756065352
280	1232486	4273.025516092301	0.025516092301
280	1232856	4273.029004052864	0.029004052864
280	1317575	4870.016916055844	0.016916055844
280	1317956	4870.022316081209	0.022316081209
280	1318332	4870.032452047983	0.032452047983
280	1319224	4871.008676015895	0.008676015895
280	1319584	4871.013436023411	0.013436023411
280	1319956	4871.018196034255	0.018196034255
280	1321232	4872.015676044205	0.015676044205
280	1322367	4872.027076110944	0.027076110944
280	1323096	4872.037812094504	0.037812094504
280	1324705	4873.015636065353	0.015636065353
280	1325077	4873.018196052865	0.018196052865
280	1326482	4873.069532092302	0.069532092302
280	1411282	5470.017236055843	0.017236055843
280	1411659	5470.021356081208	0.021356081208
280	1412034	5470.025236047982	0.025236047982
280	1412926	5471.008676015894	0.008676015894
280	1413286	5471.01279602341	0.01279602341
280	1413658	5471.018196034253	0.018196034253
280	1414933	5472.012476044204	0.012476044204
280	1416068	5472.024516110944	0.024516110944
280	1416797	5472.037492094503	0.037492094503
280	1418561	5473.018516052865	0.018516052865
280	1418923	5473.043724065353	0.043724065353
280	1419298	5473.047204092302	0.047204092302
280	1504038	6070.015636047982	0.015636047982
280	1504407	6070.021644055843	0.021644055843
280	1504784	6070.028964081208	0.028964081208
280	1505678	6071.008356015895	0.008356015895
280	1506038	6071.012156023411	0.012156023411
280	1506410	6071.015636034255	0.015636034255
280	1507685	6072.013436044205	0.013436044205
280	1509192	6072.029244094504	0.029244094504
280	1509546	6072.033332110944	0.033332110944
280	1511317	6073.018516052865	0.018516052865
280	1511679	6073.043724065353	0.043724065353
280	1512054	6073.047524092302	0.047524092302
280	1596793	6670.015636055844	0.015636055844
280	1597173	6670.018124047983	0.018124047983
280	1597539	6670.020396081209	0.020396081209
280	1598433	6671.007076015895	0.007076015895
280	1598793	6671.011836023411	0.011836023411
280	1599165	6671.016276034255	0.016276034255
280	1600440	6672.010876044205	0.010876044205
280	1601935	6672.023236094504	0.023236094504
280	1602286	6672.025476110944	0.025476110944
280	1603900	6673.016596052865	0.016596052865
280	1604257	6673.021644065352	0.021644065352
280	1604633	6673.0257640923	0.0257640923
280	1689440	7270.017556047982	0.017556047982
280	1690341	7270.044364055843	0.044364055843
280	1690717	7270.048164081208	0.048164081208
280	1691611	7271.007076015895	0.007076015895
280	1691971	7271.010556023411	0.010556023411
280	1692343	7271.015636034255	0.015636034255
280	1693618	7272.013116044205	0.013116044205
280	1694754	7272.026116110944	0.026116110944
280	1695483	7272.041332094503	0.041332094503
280	1697096	7273.016276065353	0.016276065353
280	1697468	7273.018764052865	0.018764052865
280	1697822	7273.020716092302	0.020716092302
283	546	1.005	1
283	854	1.01	48
283	1749	1.015	29
283	2689	1.02	43
283	4035	1.025	35
283	5530	1.03	71
283	7107	1.035	59
283	7854	1.04	24
283	8782	1.045	72
283	9865	1.05	88
283	10169	1.055	16
283	10702	1.06	50
283	11172	1.065	37
283	11554	1.07	35
283	11783	1.075	19
283	11784	1.08	0
283	12297	1.089803020909	46
283	12298	1.094803020909	0
283	12625	1.13023389175	22
283	13107	1.13523389175	54
283	13566	1.14023389175	15
283	13798	1.14523389175	17
283	14259	1.15023389175	37
283	14407	1.15523389175	17
283	14408	1.16023389175	0
283	20402	43.505	1
283	21127	43.51	25
283	22628	43.515	0
283	23425	43.52	0
283	24159	43.52594304798	0
283	24572	43.53094304798	0
283	25417	43.53594304798	0
283	26160	43.54094304798	0
283	26986	43.54594304798	0
283	27662	43.55094304798	0
283	28398	43.55594304798	0
283	29140	43.56094304798	0
283	29884	43.56594304798	0
283	30462	43.57094304798	0
283	31981	43.582512829193	0
283	32549	43.587512829193	0
283	33135	43.592512829193	0
283	34468	43.604505748491	0
283	35132	43.609505748491	0
283	35693	43.614505748491	0
283	36347	43.619505748491	0
283	37309	43.624505748491	0
283	37550	43.629505748491	0
283	38458	43.63489951893	0
283	39039	43.63989951893	0
283	39607	43.64489951893	0
283	40366	43.65268354251	0
283	41006	43.65768354251	0
283	41509	43.66268354251	0
283	42271	43.66768354251	0
283	42913	43.67268354251	0
283	44150	43.681027556159	0
283	44752	43.686027556159	0
283	45162	43.691027556159	0
283	45415	43.696027556159	0
283	46142	43.701027556159	0
283	46703	43.706027556159	0
283	46962	43.711027556159	0
283	47552	43.716027556159	0
283	47872	43.721027556159	0
283	48528	43.730341058257	0
283	48870	43.735341058257	0
283	49663	43.742792109476	0
283	50247	43.747792109476	0
283	50984	43.754314737007	0
283	51143	43.759314737007	0
283	51956	43.765287583545	0
283	52364	43.770287583545	0
283	52705	43.775445287511	0
283	53036	43.780445287511	0
283	53540	43.785445287511	0
283	53857	43.790445287511	0
283	54113	43.795445287511	0
283	55240	43.807174794011	0
283	55581	43.812174794011	0
283	55659	43.817174794011	0
283	56001	43.822545003632	0
283	56329	43.827545003632	0
283	56585	43.832545003632	0
283	56586	43.837545003632	0
283	56919	43.895808685169	0
283	56920	43.900808685169	0
283	57073	44.505	1
283	57539	44.51	33
283	58614	44.515	0
283	59936	44.52	0
283	60856	44.525	0
283	61600	44.53	0
283	62217	44.5357234675	0
283	62660	44.5407234675	0
283	64459	44.555228418955	0
283	65260	44.560228418955	0
283	67343	44.576058857893	0
283	68176	44.581058857893	0
283	68916	44.586058857893	0
283	70734	44.597683586341	0
283	71243	44.602683586341	0
283	73464	44.618533321891	0
283	74057	44.623533321891	0
283	74724	44.628533321891	0
283	77530	44.643538603741	0
283	77851	44.648538603741	0
283	84150	44.70227109683	0
283	84660	44.70727109683	0
283	85779	44.712512139437	0
283	86279	44.717512139437	0
283	86942	44.722512139437	0
283	87463	44.727512139437	0
283	88307	44.732512139437	0
283	89043	44.737512139437	0
283	89647	44.742512139437	0
283	90358	44.747512139437	0
283	91004	44.752512139437	0
283	91729	44.757512139437	0
283	92218	44.762512139437	0
283	92691	44.767512139437	0
283	93447	44.772512139437	0
283	94036	44.777512139437	0
283	95536	44.788112219017	0
283	95967	44.793112219017	0
283	96874	44.798710241006	0
283	97632	44.803710241006	0
283	98206	44.808710241006	0
283	99096	44.813710241006	0
283	99504	44.818710241006	0
283	101228	44.828905478925	0
283	101554	44.833905478925	0
283	102362	44.838905478925	0
283	102613	44.843905478925	0
283	102953	44.848905478925	0
283	104504	44.863663698333	0
283	104758	44.868663698333	0
283	105008	44.873663698333	0
283	105736	44.878663698333	0
283	107429	44.900464582594	0
283	108082	44.905464582594	0
283	108720	44.910464582594	0
283	111207	44.943263764184	0
283	111481	44.948263764184	0
283	111813	44.953263764184	0
283	112145	44.958263764184	0
283	112146	44.963263764184	0
283	112149	44.971661078395	0
283	112486	44.976661078395	0
283	112643	44.981661078395	0
283	113440	45.007869456386	0
283	113444	45.012869456386	0
283	113788	45.037558852427	0
283	113789	45.042558852427	0
283	113805	45.505	1
283	114258	45.51	30
283	115575	45.515	0
283	116453	45.52	0
283	117949	45.528675876536	0
283	118823	45.533675876536	0
283	119422	45.538675876536	0
283	120408	45.543675876536	35
283	121378	45.548675876536	43
283	122530	45.553675876536	22
283	124004	45.558675876536	21
283	125252	45.563675876536	21
283	126379	45.568675876536	14
283	127391	45.573675876536	19
283	128145	45.578675876536	35
283	129093	45.583675876536	7
283	130122	45.588675876536	8
283	131026	45.593675876536	19
283	131650	45.598675876536	10
283	132183	45.603675876536	0
283	133359	45.614315894904	12
283	133876	45.619315894904	0
283	135294	45.632192759072	17
283	135891	45.637192759072	0
283	137061	45.644154798399	9
283	137795	45.649154798399	0
283	139138	45.661361333043	0
283	139747	45.666361333043	0
283	141039	45.675560321512	0
283	141805	45.680560321512	0
283	142486	45.685560321512	0
283	143232	45.690560321512	0
283	143884	45.697876983251	0
283	144672	45.702876983251	0
283	145270	45.707876983251	0
283	145703	45.712876983251	0
283	146459	45.717876983251	0
283	149002	45.734883359364	0
283	149589	45.739883359364	0
283	150635	45.744883359364	0
283	151230	45.749883359364	0
283	151822	45.754883359364	0
283	152010	45.759883359364	0
283	152509	45.764883359364	0
283	153263	45.769883359364	0
283	153769	45.774883359364	0
283	154362	45.78445832507	0
283	154801	45.78945832507	0
283	155593	45.79445832507	0
283	156187	45.799463158597	0
283	156602	45.804463158597	0
283	157123	45.810186091771	0
283	157786	45.815186091771	0
283	158115	45.820186091771	0
283	158359	45.825186091771	0
283	158931	45.830186091771	0
283	159597	45.835186091771	0
283	160201	45.841242118597	0
283	160605	45.846242118597	0
283	161207	45.857422562526	0
283	161377	45.862422562526	0
283	161802	45.876873618272	0
283	162045	45.881873618272	0
283	162537	45.906683430081	0
283	162617	45.911683430081	0
283	163122	45.925147917547	0
283	163377	45.930147917547	0
283	164126	45.940486585679	0
283	164400	45.945486585679	0
283	164736	45.950486585679	0
283	164737	45.955486585679	0
283	165473	46.505	22
283	166456	46.51	0
283	167132	46.515	0
283	167968	46.520539357893	0
283	168781	46.525539357893	0
283	169469	46.530539357893	55
283	170605	46.535539357893	3
283	171886	46.540539357893	18
283	173326	46.545539357893	47
283	174833	46.550539357893	28
283	176124	46.555539357893	36
283	177754	46.560539357893	28
283	178690	46.565539357893	31
283	179965	46.570539357893	56
283	180596	46.575539357893	15
283	181371	46.580539357893	27
283	182381	46.585539357893	17
283	182851	46.590539357893	30
283	183255	46.595539357893	18
283	184062	46.600539357893	15
283	184512	46.605539357893	0
283	185068	46.610539357893	0
283	185817	46.615539357893	0
283	186145	46.620539357893	0
283	188178	46.641260252544	0
283	188835	46.646260252544	0
283	188993	46.651260252544	0
283	189815	46.656651684955	0
283	190230	46.661651684955	0
283	190717	46.666651684955	0
283	191934	46.679196265904	0
283	192533	46.684196265904	0
283	192872	46.689196265904	0
283	193277	46.694196265904	0
283	193971	46.699196265904	0
283	194377	46.704196265904	0
283	195439	46.731338408484	0
283	195777	46.736338408484	0
283	196285	46.741338408484	0
283	196379	46.746338408484	0
283	197057	46.75898419129	0
283	197061	46.76398419129	0
283	197619	47.505	1
283	198507	47.51	32
283	200108	47.515	0
283	200895	47.52	46
283	201975	47.525	21
283	203066	47.53	50
283	204256	47.535	58
283	205836	47.54	31
283	207034	47.545	9
283	208396	47.55	42
283	209760	47.555	37
283	210765	47.56	15
283	211847	47.565	15
283	212521	47.57	0
283	213548	47.575	0
283	214299	47.58	0
283	215059	47.585	0
283	215431	47.59	15
283	216225	47.595	7
283	216900	47.6	0
283	217506	47.605	24
283	218033	47.61	0
283	218674	47.615	0
283	219621	47.622628674105	0
283	220601	47.627628674105	0
283	221098	47.632628674105	0
283	222709	47.644753058697	0
283	223331	47.649753058697	0
283	223762	47.654753058697	0
283	224615	47.6599598431	0
283	225249	47.6649598431	0
283	226370	47.673141776637	0
283	226787	47.678141776637	0
283	227483	47.684222567192	0
283	228079	47.689222567192	0
283	229304	47.700616525132	0
283	229674	47.705616525132	0
283	230671	47.713818556117	0
283	231267	47.718818556117	0
283	232132	47.728309930415	0
283	232651	47.733309930415	0
283	233407	47.738309930415	0
283	234042	47.743309930415	0
283	234589	47.748309930415	0
283	235112	47.753309930415	0
283	235458	47.758309930415	0
283	236292	47.766270131818	0
283	236715	47.771270131818	0
283	237664	47.78013723169	0
283	238382	47.78513723169	0
283	239156	47.791841260426	0
283	239745	47.796841260426	0
283	239834	47.801841260426	0
283	239840	47.80702962053	0
283	240255	47.81202962053	0
283	240669	47.81702962053	0
283	240924	47.82202962053	0
283	241280	47.828261814343	0
283	241556	47.833261814343	0
283	241903	47.838261814343	0
283	242235	47.843261814343	0
283	242582	47.855813954054	0
283	242660	47.860813954054	0
283	243088	47.866520795187	0
283	243443	47.871520795187	0
283	243444	47.876520795187	0
283	243965	47.896790690283	0
283	244136	47.901790690283	0
283	244488	47.93294482642	0
283	244489	47.93794482642	0
283	244642	48.505	1
283	245258	48.51	26
283	246380	48.515	0
283	247359	48.52	0
283	247837	48.525	0
283	248633	48.53	0
283	249337	48.535945956371	0
283	250233	48.540945956371	44
283	251170	48.545945956371	28
283	252154	48.550945956371	14
283	253562	48.555945956371	27
283	255008	48.560945956371	49
283	256268	48.565945956371	30
283	257694	48.570945956371	26
283	258986	48.575945956371	33
283	259868	48.580945956371	12
283	260618	48.585945956371	3
283	261945	48.590945956371	40
283	262533	48.595945956371	0
283	263151	48.602454696352	0
283	263590	48.607454696352	0
283	264338	48.612454696352	0
283	265520	48.617454696352	11
283	266430	48.622454696352	20
283	267120	48.627454696352	23
283	267893	48.632454696352	23
283	268252	48.637454696352	0
283	269261	48.6442948894	0
283	269938	48.6492948894	23
283	270623	48.6542948894	0
283	271262	48.6592948894	0
283	272537	48.672476318744	0
283	272947	48.677476318744	0
283	273942	48.685966867998	0
283	274497	48.690966867998	13
283	275070	48.695966867998	0
283	275903	48.700966867998	0
283	276261	48.705966867998	0
283	276891	48.710966867998	0
283	277316	48.715966867998	0
283	277808	48.720966867998	0
283	278753	48.73474206224	0
283	279098	48.73974206224	0
283	279606	48.74474206224	0
283	280519	48.74974206224	0
283	281017	48.75474206224	0
283	281450	48.764366072096	0
283	281888	48.769366072096	0
283	282645	48.774366072096	0
283	282734	48.779366072096	0
283	283356	48.785348737888	0
283	283357	48.790348737888	0
283	283599	48.796562238874	0
283	283769	48.801562238874	0
283	284397	48.81228672842	0
283	284399	48.81728672842	0
283	285086	48.849636253873	0
283	285412	48.854636253873	0
283	285413	48.859636253873	0
283	285759	48.885886705381	0
283	285760	48.890886705381	0
283	286012	49.505	1
283	287069	49.51	41
283	288712	49.515	0
283	289800	49.52	40
283	290522	49.525	0
283	291675	49.530287663956	46
283	293094	49.535287663956	22
283	294924	49.540287663956	11
283	296234	49.545287663956	26
283	296998	49.550287663956	0
283	298496	49.558170486767	34
283	299885	49.563170486767	22
283	300817	49.568170486767	0
283	302031	49.575984574376	0
283	302770	49.580984574376	29
283	303389	49.585984574376	0
283	307078	49.60920748434	0
283	308072	49.61420748434	11
283	309508	49.61920748434	0
283	310397	49.62420748434	0
283	314925	49.646216232348	0
283	315775	49.651216232348	0
283	316667	49.657007507225	0
283	317551	49.662007507225	0
283	318529	49.667007507225	16
283	319588	49.672007507225	0
283	322632	49.691045770081	0
283	323258	49.696045770081	0
283	324167	49.701143555045	0
283	325013	49.706143555045	0
283	327111	49.718041564797	0
283	328046	49.723041564797	0
283	328940	49.730510878241	0
283	330051	49.735510878241	0
283	330656	49.740510878241	0
283	331508	49.745510878241	0
283	332210	49.750510878241	0
283	332965	49.755510878241	0
283	333949	49.760583537368	0
283	335095	49.765583537368	0
283	336460	49.772162858572	0
283	337205	49.777162858572	0
283	337942	49.782162858572	0
283	338729	49.787162858572	0
283	339557	49.792162858572	0
283	340918	49.802134733996	0
283	341688	49.807134733996	0
283	342762	49.813812157392	0
283	343979	49.818812157392	0
283	344337	49.823812157392	0
283	345086	49.82886224506	0
283	345748	49.83386224506	0
283	346425	49.83886224506	0
283	347097	49.84386224506	0
283	347584	49.84886224506	0
283	348271	49.854105744663	0
283	348747	49.859105744663	0
283	349495	49.864105744663	0
283	349929	49.869105744663	0
283	351307	49.882456406512	0
283	351737	49.887456406512	0
283	352480	49.894348718891	0
283	353195	49.899348718891	12
283	353564	49.904348718891	0
283	353931	49.909348718891	0
283	354431	49.914348718891	0
283	354978	49.919348718891	0
283	355386	49.924348718891	0
283	355674	49.930798728742	0
283	355995	49.935798728742	0
283	356429	49.941280419507	0
283	356889	49.946280419507	0
283	357142	49.951280419507	0
283	357929	49.965754587379	0
283	357930	49.970754587379	0
283	358377	49.983658977745	0
283	358726	49.988658977745	0
283	359007	49.993658977745	0
283	359501	50.008755275871	0
283	359502	50.013755275871	0
283	359859	50.027782762086	0
283	359860	50.032782762086	0
283	360223	50.068779298937	0
283	360224	50.073779298937	0
283	360264	50.505	1
283	360348	50.51	0
283	361192	50.515301173468	14
283	362050	50.520301173468	0
283	362600	50.525301173468	0
283	363352	50.530301173468	0
283	363850	50.535301173468	0
283	364209	50.540301173468	0
283	365050	50.545301173468	0
283	365687	50.550301173468	0
283	366057	50.555301173468	0
283	366517	50.560301173468	0
283	367034	50.565301173468	0
283	367547	50.570301173468	0
283	367963	50.575301173468	0
283	368722	50.584174328535	0
283	369726	50.589174328535	0
283	370435	50.594174328535	0
283	371154	50.599174328535	0
283	371489	50.604174328535	0
283	371676	50.609174328535	0
283	372215	50.614174328535	0
283	373090	50.619174328535	0
283	373617	50.624174328535	0
283	374380	50.629174328535	0
283	374960	50.634174328535	0
283	375315	50.639174328535	0
283	375816	50.644174328535	0
283	376571	50.651788007589	0
283	377104	50.656788007589	0
283	377105	50.661788007589	0
283	378024	50.686975125236	0
283	378299	50.691975125236	0
283	378300	50.696975125236	0
283	378660	50.706367599147	0
283	378997	50.711367599147	0
283	378998	50.716367599147	0
283	379310	51.505	1
283	380047	51.51	22
283	380956	51.515	0
283	381865	51.52	0
283	382370	51.525	0
283	382886	51.530361399649	0
283	383702	51.535361399649	0
283	384349	51.540361399649	0
283	385243	51.545361399649	0
283	386106	51.550361399649	0
283	386709	51.555361399649	0
283	387218	51.560361399649	0
283	387636	51.565361399649	0
283	388387	51.571850655861	0
283	389252	51.576850655861	0
283	389956	51.581850655861	0
283	390611	51.586850655861	0
283	391319	51.591850655861	0
283	391758	51.596850655861	0
283	392458	51.601850655861	0
283	393111	51.606850655861	0
283	393544	51.611850655861	0
283	394079	51.616850655861	0
283	394517	51.621850655861	0
283	395483	51.628957664545	0
283	396104	51.633957664545	0
283	396692	51.638957664545	0
283	397139	51.643957664545	0
283	397586	51.648957664545	0
283	398123	51.653957664545	0
283	398660	51.658957664545	0
283	399172	51.663957664545	0
283	399814	51.668957664545	0
283	400258	51.673957664545	0
283	400621	51.678957664545	0
283	401067	51.683957664545	0
283	401435	51.688957664545	0
283	401775	51.693957664545	0
283	402203	51.698957664545	0
283	402574	51.704626477185	0
283	403200	51.709626477185	0
283	403454	51.714626477185	0
283	403641	51.719626477185	0
283	404274	51.736447193846	0
283	404275	51.741447193846	0
283	404633	51.792980260778	0
283	404634	51.797980260778	0
283	404980	51.820567197062	0
283	404981	51.825567197062	0
283	405697	51.879407212452	0
283	405698	51.884407212452	0
283	405949	52.505	1
283	406267	52.51	18
283	407324	52.515	0
283	408265	52.52	0
283	408793	52.525	0
283	409499	52.534220459099	0
283	410393	52.539220459099	0
283	411137	52.544220459099	0
283	411650	52.549220459099	0
283	412353	52.556427497327	0
283	412873	52.561427497327	0
283	413519	52.566427497327	0
283	414285	52.571427497327	0
283	415153	52.576427497327	0
283	415738	52.581427497327	0
283	416115	52.587051749355	0
283	416200	52.592051749355	0
283	416991	52.599319642854	0
283	417772	52.604319642854	0
283	418457	52.609319642854	0
283	419285	52.614319642854	0
283	420067	52.620366634168	0
283	420513	52.625366634168	0
283	421023	52.630366634168	0
283	421376	52.635366634168	0
283	422318	52.642799135984	0
283	422490	52.647799135984	0
283	423706	52.656279113023	0
283	424068	52.661279113023	0
283	424606	52.666279113023	0
283	425189	52.671279113023	0
283	425195	52.676279113023	0
283	426613	52.692015789093	0
283	426800	52.697015789093	0
283	427427	52.703931326078	0
283	427935	52.708931326078	0
283	428383	52.722733837365	0
283	428745	52.727733837365	0
283	429515	52.732733837365	0
283	429863	52.737733837365	0
283	430235	52.742733837365	0
283	430733	52.747733837365	0
283	431089	52.752733837365	0
283	431267	52.76493333954	0
283	431270	52.76993333954	0
283	431624	52.778987771616	0
283	431703	52.783987771616	0
283	432546	53.505	1
283	433641	53.51	39
283	435532	53.515	0
283	436529	53.52	0
283	437512	53.525	37
283	438620	53.53	14
283	439476	53.535	13
283	440852	53.54	35
283	442026	53.545	3
283	442929	53.55	7
283	444061	53.555	9
283	444932	53.56	7
283	445934	53.565	13
283	446801	53.57	0
283	447724	53.575913969912	9
283	448572	53.580913969912	12
283	449535	53.585913969912	0
283	450500	53.590913969912	0
283	451298	53.595913969912	0
283	452613	53.604194289903	0
283	453139	53.609194289903	0
283	458672	53.637777999996	0
283	459720	53.642777999996	0
283	460652	53.647777999996	0
283	461564	53.654537613663	0
283	462270	53.659537613663	0
283	468431	53.697798043129	0
283	469215	53.702798043129	0
283	470736	53.71541513536	0
283	471451	53.72041513536	0
283	472343	53.72636310644	0
283	473150	53.73136310644	0
283	473752	53.73636310644	0
283	474688	53.74136310644	0
283	475533	53.74636310644	0
283	476534	53.75136310644	0
283	477313	53.75636310644	0
283	477967	53.76136310644	0
283	478903	53.76636310644	0
283	479631	53.771386656842	0
283	480411	53.776386656842	0
283	481951	53.78489372751	0
283	482945	53.78989372751	0
283	483838	53.795244131534	0
283	484466	53.800244131534	0
283	485544	53.809599598861	0
283	486166	53.814599598861	0
283	487115	53.819599598861	0
283	487885	53.824599598861	0
283	488682	53.829599598861	0
283	489153	53.834599598861	0
283	490986	53.848719153395	0
283	491844	53.853719153395	0
283	494072	53.866308626284	0
283	494452	53.871308626284	0
283	495158	53.879577118989	0
283	495523	53.884577118989	0
283	496200	53.889577118989	0
283	497967	53.90554631979	0
283	498517	53.91054631979	0
283	498857	53.91554631979	0
283	499587	53.92100874242	0
283	500027	53.92600874242	0
283	500835	53.93100874242	0
283	501305	53.93600874242	0
283	501759	53.94100874242	0
283	502242	53.94749065045	0
283	502938	53.95249065045	0
283	503298	53.95749065045	0
283	503299	53.96249065045	0
283	503683	53.977720113852	0
283	504380	53.982720113852	0
283	504747	53.987720113852	0
283	505254	54.051174668933	0
283	505255	54.056174668933	0
283	505713	54.505	39
283	507003	54.51	0
283	508327	54.515	0
283	509066	54.52	0
283	509883	54.525	0
283	510436	54.530044483656	0
283	511318	54.535044483656	0
283	512055	54.540044483656	0
283	513961	54.553290421853	0
283	514919	54.558290421853	0
283	515951	54.563290421853	0
283	518210	54.578734977641	0
283	518908	54.583734977641	0
283	519832	54.588734977641	0
283	520549	54.593734977641	0
283	521355	54.598734977641	0
283	522092	54.603734977641	0
283	524226	54.615756172674	0
283	525395	54.620756172674	0
283	526478	54.625756172674	0
283	528042	54.635727733472	0
283	528746	54.640727733472	0
283	531686	54.661511747652	0
283	532713	54.666511747652	0
283	533511	54.671511747652	0
283	534337	54.677164889254	0
283	535054	54.682164889254	0
283	535730	54.687164889254	0
283	536867	54.693485463215	0
283	537686	54.698485463215	0
283	538506	54.703485463215	0
283	539295	54.708485463215	0
283	540092	54.713485463215	0
283	541152	54.719395556476	0
283	542060	54.724395556476	0
283	542605	54.729395556476	0
283	544334	54.740055568129	0
283	545211	54.745055568129	0
283	546000	54.750055568129	0
283	546612	54.755055568129	0
283	547574	54.760055568129	0
283	548274	54.765055568129	0
283	549130	54.770055568129	0
283	549665	54.775055568129	0
283	550207	54.780055568129	0
283	551083	54.785055568129	0
283	551992	54.792738544937	0
283	552490	54.797738544937	0
283	553269	54.803876154869	0
283	554147	54.808876154869	0
283	554581	54.813876154869	0
283	557363	54.834275002702	0
283	557817	54.839275002702	0
283	558544	54.844386752705	0
283	559359	54.849386752705	0
283	560440	54.857565994862	0
283	561021	54.862565994862	0
283	561619	54.867565994862	0
283	562146	54.873124714402	0
283	563020	54.878124714402	0
283	563374	54.883124714402	0
283	564916	54.895677315912	0
283	565270	54.900677315912	0
283	565271	54.905677315912	0
283	565284	54.914910186065	0
283	565890	54.919910186065	0
283	567794	54.948464221745	0
283	568143	54.953464221745	0