version 2
run AODVScenario_1f-39-20121119-16:12:49-2212
attr configname AODVScenario_1f
attr datetime 20121119-16:12:49
attr experiment AODVScenario_1f
attr inifile AODV.ini
attr iterationvars $numNodes=89
attr iterationvars2 "$numNodes=89, $repetition=0"
attr measurement $numNodes=89
attr network csma802154net
attr numNodes 89
attr processid 2212
attr repetition 0
attr replication #0
attr resultdir results
attr runnumber 39
attr seedset 39

vector 367  csma802154net.dataCentricNetworkMan  RREQPacketFrequency  ETV
vector 368  csma802154net.dataCentricNetworkMan  RERRPacketFrequency  ETV
vector 369  csma802154net.dataCentricNetworkMan  DiscoveryPacketFrequency  ETV
vector 370  csma802154net.dataCentricNetworkMan  RegisterPacketFrequency  ETV
vector 371  csma802154net.dataCentricNetworkMan  RReplyPacketFrequency  ETV
vector 372  csma802154net.dataCentricNetworkMan  AODVDataPacketFrequency  ETV
vector 379  csma802154net.dataCentricNetworkMan  pendingRegistrationVector  ETV
vector 378  csma802154net.dataCentricNetworkMan  pendingRREQVector  ETV
vector 376  csma802154net.dataCentricNetworkMan  PendingDataPacketsVector  ETV
vector 393  csma802154net.fixhost[13].udpApp  "End-to-end delay"  ETV
vector 364  csma802154net.dataCentricNetworkMan  dataPacketE2EDelay  ETV
vector 403  csma802154net.fixhost[23].udpApp  "End-to-end delay"  ETV
vector 404  csma802154net.fixhost[24].udpApp  "End-to-end delay"  ETV
vector 383  csma802154net.fixhost[3].udpApp  "End-to-end delay"  ETV
vector 385  csma802154net.fixhost[5].udpApp  "End-to-end delay"  ETV
vector 394  csma802154net.fixhost[14].udpApp  "End-to-end delay"  ETV
vector 389  csma802154net.fixhost[9].udpApp  "End-to-end delay"  ETV
vector 391  csma802154net.fixhost[11].udpApp  "End-to-end delay"  ETV
vector 396  csma802154net.fixhost[16].udpApp  "End-to-end delay"  ETV
vector 384  csma802154net.fixhost[4].udpApp  "End-to-end delay"  ETV
vector 387  csma802154net.fixhost[7].udpApp  "End-to-end delay"  ETV
364	752055	70.012476042033	0.012476042033
364	752483	70.016596059373	0.016596059373
364	752898	70.021356078654	0.021356078654
364	755502	71.021356075919	0.021356075919
364	756396	71.046564090511	0.046564090511
364	757765	71.06305212537	0.06305212537
364	761059	72.026404067598	0.026404067598
364	761540	72.028636101878	0.028636101878
364	762928	72.050212135538	0.050212135538
364	766101	73.026756087075	0.026756087075
364	769099	73.088860135403	0.088860135403
364	879390	670.015996042035	0.015996042035
364	879817	670.019796059375	0.019796059375
364	880232	670.023276078656	0.023276078656
364	882836	671.020076075918	0.020076075918
364	883914	671.04592409051	0.04592409051
364	885286	671.079052125369	0.079052125369
364	888114	672.024556067599	0.024556067599
364	889691	672.035604101879	0.035604101879
364	890642	672.05860413554	0.05860413554
364	893809	673.025156087075	0.025156087075
364	895672	673.059244135403	0.059244135403
364	1005962	1270.014076042035	0.014076042035
364	1006390	1270.018516059375	0.018516059375
364	1006805	1270.021996078656	0.021996078656
364	1009409	1271.020716075919	0.020716075919
364	1011207	1271.050012090511	0.050012090511
364	1011670	1271.05256412537	0.05256412537
364	1014066	1272.021996067599	0.021996067599
364	1017032	1272.06116413554	0.06116413554
364	1017496	1272.065220101879	0.065220101879
364	1020675	1273.026756087075	0.026756087075
364	1022537	1273.062692135404	0.062692135404
364	1132916	1870.012476042035	0.012476042035
364	1133344	1870.017556059374	0.017556059374
364	1133759	1870.021676078655	0.021676078655
364	1136594	1871.025764090511	0.025764090511
364	1138166	1871.034996152034	0.034996152034
364	1139091	1871.057684130253	0.057684130253
364	1141494	1872.022636067599	0.022636067599
364	1143059	1872.039764101879	0.039764101879
364	1144447	1872.065892135538	0.065892135538
364	1147855	1873.025476087074	0.025476087074
364	1149286	1873.035244135401	0.035244135401
364	1259576	2470.014396042035	0.014396042035
364	1260004	2470.019156059375	0.019156059375
364	1260419	2470.023596078656	0.023596078656
364	1263023	2471.021036075918	0.021036075918
364	1264345	2471.04752409051	0.04752409051
364	1265280	2471.053844125369	0.053844125369
364	1267676	2472.021356067599	0.021356067599
364	1269146	2472.031836101879	0.031836101879
364	1270428	2472.04068413554	0.04068413554
364	1273600	2473.024196087075	0.024196087075
364	1275933	2473.062372135404	0.062372135404
364	1386223	3070.014076042035	0.014076042035
364	1386651	3070.019476059375	0.019476059375
364	1387066	3070.023276078656	0.023276078656
364	1389670	3071.021676075918	0.021676075918
364	1390565	3071.047204090509	0.047204090509
364	1391932	3071.060172125368	0.060172125368
364	1394329	3072.021996067597	0.021996067597
364	1396142	3072.036244101878	0.036244101878
364	1397314	3072.067812135539	0.067812135539
364	1400481	3073.025796087075	0.025796087075
364	1402343	3073.060524135404	0.060524135404
364	1512722	3670.013756042034	0.013756042034
364	1513150	3670.018516059374	0.018516059374
364	1513565	3670.021996078655	0.021996078655
364	1515968	3671.02167609051	0.02167609051
364	1517284	3671.029604075918	0.029604075918
364	1518241	3671.035924125368	0.035924125368
364	1520638	3672.021996067599	0.021996067599
364	1522554	3672.037772101879	0.037772101879
364	1523624	3672.068060135539	0.068060135539
364	1526801	3673.025796087075	0.025796087075
364	1528663	3673.062372135404	0.062372135404
364	1638953	4270.010876042035	0.010876042035
364	1639380	4270.014996059375	0.014996059375
364	1639795	4270.019436078655	0.019436078655
364	1642596	4271.025764090508	0.025764090508
364	1643916	4271.047204075915	0.047204075915
364	1644872	4271.054804125367	0.054804125367
364	1648365	4272.028956101877	0.028956101877
364	1649252	4272.050652067598	0.050652067598
364	1650657	4272.065252135538	0.065252135538
364	1653824	4273.028356087073	0.028356087073
364	1655686	4273.062124135402	0.062124135402
364	1765976	4870.012156042035	0.012156042035
364	1766404	4870.016276059374	0.016276059374
364	1766819	4870.020716078655	0.020716078655
364	1769675	4871.023844075919	0.023844075919
364	1770564	4871.029924090511	0.029924090511
364	1771504	4871.04161212537	0.04161212537
364	1774794	4872.029604067599	0.029604067599
364	1775717	4872.034324101878	0.034324101878
364	1776664	4872.04100413554	0.04100413554
364	1779831	4873.026756087074	0.026756087074
364	1781693	4873.061804135404	0.061804135404
364	1892072	5470.012796042035	0.012796042035
364	1892500	5470.017876059375	0.017876059375
364	1892915	5470.021676078656	0.021676078656
364	1895335	5471.023596075919	0.023596075919
364	1897162	5471.041364125368	0.041364125368
364	1897617	5471.05114809051	0.05114809051
364	1901006	5472.028316101879	0.028316101879
364	1902508	5472.04509213554	0.04509213554
364	1902961	5472.054812067599	0.054812067599
364	1906149	5473.032196087073	0.032196087073
364	1908011	5473.064364135402	0.064364135402
364	2018302	6070.015036042035	0.015036042035
364	2018729	6070.019156059374	0.019156059374
364	2019144	6070.022956078655	0.022956078655
364	2022425	6071.028316130252	0.028316130252
364	2023484	6071.034996152033	0.034996152033
364	2024039	6071.059292090511	0.059292090511
364	2026420	6072.018476067598	0.018476067598
364	2028244	6072.035532101878	0.035532101878
364	2029410	6072.063580135539	0.063580135539
364	2032821	6073.026116087075	0.026116087075
364	2034247	6073.035244135404	0.035244135404
364	2144537	6670.013756042034	0.013756042034
364	2144965	6670.017876059374	0.017876059374
364	2145380	6670.023276078655	0.023276078655
364	2147783	6671.02199609051	0.02199609051
364	2149098	6671.038556130251	0.038556130251
364	2150058	6671.046196152033	0.046196152033
364	2153552	6672.032476101879	0.032476101879
364	2154438	6672.050972067599	0.050972067599
364	2157181	6672.115988135538	0.115988135538
364	2160348	6673.028036087073	0.028036087073
364	2162210	6673.062444135402	0.062444135402
364	2272589	7270.011516042034	0.011516042034
364	2273017	7270.015636059374	0.015636059374
364	2273431	7270.019116078655	0.019116078655
364	2275946	7271.020716075919	0.020716075919
364	2277875	7271.060172125369	0.060172125369
364	2278328	7271.062988090511	0.062988090511
364	2280713	7272.021676067598	0.021676067598
364	2282505	7272.031444101878	0.031444101878
364	2283455	7272.040364135539	0.040364135539
364	2286626	7273.024516087075	0.024516087075
364	2288491	7273.063652135404	0.063652135404
367	705	1.005	1
367	810	1.01	0
367	1167	1.01639282302	18
367	1881	1.02139282302	54
367	2836	1.02639282302	55
367	4462	1.03139282302	73
367	6271	1.03639282302	59
367	7986	1.04139282302	61
367	9808	1.04639282302	124
367	11874	1.05139282302	64
367	13240	1.05639282302	56
367	14196	1.06139282302	35
367	15232	1.06639282302	73
367	16289	1.07139282302	83
367	17067	1.07639282302	77
367	17714	1.08139282302	51
367	18584	1.08639282302	40
367	19463	1.09139282302	82
367	20200	1.09639282302	76
367	20302	1.10139282302	0
367	21136	1.106656233225	94
367	21473	1.111656233225	31
367	21680	1.116656233225	24
367	22049	1.121656233225	38
367	22050	1.126656233225	0
367	22877	1.142004766662	92
367	22878	1.147004766662	0
367	24147	1.155420049464	108
367	24811	1.160420049464	32
367	25684	1.165420049464	102
367	26003	1.170420049464	47
367	26004	1.175420049464	0
367	26574	1.202026970118	38
367	26575	1.207026970118	0
367	34313	43.505	1
367	34418	43.51	0
367	35475	43.515935693148	24
367	36476	43.520935693148	0
367	37485	43.525935693148	0
367	38320	43.530935693148	0
367	39143	43.536634369655	0
367	39890	43.541634369655	0
367	40864	43.550588783907	0
367	41622	43.555588783907	0
367	42427	43.560588783907	0
367	43303	43.565588783907	0
367	44132	43.570588783907	0
367	45165	43.575588783907	0
367	45591	43.580588783907	0
367	46581	43.585691630665	0
367	47586	43.590691630665	0
367	48334	43.595691630665	0
367	48973	43.600691630665	0
367	49670	43.605691630665	0
367	50391	43.610691630665	0
367	51149	43.615691630665	0
367	52327	43.623553870998	0
367	52953	43.628553870998	0
367	53182	43.633553870998	0
367	54951	43.647541742742	0
367	55709	43.652541742742	0
367	56481	43.657541742742	0
367	57129	43.662541742742	0
367	57891	43.667541742742	0
367	58691	43.672541742742	0
367	59237	43.677541742742	0
367	59337	43.682541742742	0
367	60292	43.690271362133	0
367	60832	43.695271362133	0
367	61259	43.700271362133	0
367	61792	43.707413398584	0
367	62533	43.712413398584	0
367	63501	43.719777469325	0
367	64171	43.724777469325	0
367	64567	43.729777469325	0
367	65298	43.735470807849	0
367	65399	43.740470807849	0
367	66050	43.747178894735	0
367	66784	43.752178894735	0
367	66883	43.757178894735	0
367	67229	43.763763821147	0
367	67756	43.768763821147	0
367	69768	43.804161897416	0
367	69769	43.809161897416	0
367	70215	43.827431785262	0
367	70642	43.832431785262	0
367	70741	43.837431785262	0
367	71073	43.842596161525	0
367	71074	43.847596161525	0
367	71364	44.505	1
367	71851	44.51	13
367	72726	44.515	0
367	73545	44.52	0
367	74374	44.525	0
367	75002	44.53	0
367	75521	44.535	0
367	76346	44.54	0
367	76978	44.545	0
367	77595	44.55	0
367	78324	44.555	0
367	78733	44.56	0
367	79155	44.565	0
367	79679	44.57	0
367	79990	44.575	0
367	80583	44.582962971606	0
367	80985	44.587962971606	0
367	81390	44.592962971606	0
367	81813	44.597962971606	0
367	81916	44.602962971606	0
367	82646	44.609158707417	0
367	83055	44.614158707417	0
367	83466	44.619158707417	0
367	83467	44.624158707417	0
367	83871	44.63694560321	0
367	83872	44.64194560321	0
367	84269	44.673134907352	0
367	84270	44.678134907352	0
367	85072	44.693449632092	0
367	85073	44.698449632092	0
367	85271	45.505	1
367	86056	45.51	20
367	87259	45.515	0
367	88306	45.52	0
367	88843	45.525	0
367	89514	45.532632074043	0
367	90034	45.537632074043	0
367	90603	45.542632074043	0
367	91156	45.547632074043	0
367	92324	45.552632074043	0
367	93804	45.562499776757	0
367	94325	45.567499776757	0
367	96730	45.58480378474	0
367	97458	45.58980378474	0
367	98292	45.594998903364	0
367	99107	45.599998903364	0
367	99631	45.604998903364	0
367	100475	45.609998903364	0
367	101246	45.614998903364	0
367	102638	45.623954471595	0
367	103370	45.628954471595	0
367	103982	45.633954471595	0
367	104938	45.641691648962	0
367	105306	45.646691648962	0
367	106174	45.653682498687	0
367	106701	45.658682498687	0
367	107339	45.663682498687	0
367	108103	45.668682498687	0
367	108772	45.673682498687	0
367	109684	45.678682498687	0
367	110425	45.683682498687	0
367	111162	45.688682498687	0
367	111481	45.693682498687	0
367	112233	45.703400943126	0
367	112564	45.708400943126	0
367	113327	45.713400943126	0
367	114299	45.718400943126	0
367	114821	45.723400943126	0
367	115167	45.728400943126	0
367	115588	45.733400943126	0
367	116016	45.738400943126	0
367	116436	45.743400943126	0
367	116864	45.748400943126	0
367	116865	45.753400943126	0
367	117051	46.505	1
367	117555	46.51	39
367	119529	46.515	0
367	121429	46.52	0
367	122812	46.525	0
367	123985	46.53	0
367	124449	46.535	0
367	125792	46.54	0
367	126726	46.545	0
367	128246	46.55	0
367	129221	46.555	0
367	130775	46.566139180774	0
367	131964	46.571139180774	0
367	132923	46.576139180774	0
367	133837	46.581139180774	0
367	135048	46.586139180774	0
367	136189	46.591139180774	0
367	136918	46.596139180774	0
367	137806	46.601139180774	0
367	139591	46.610931239548	0
367	140352	46.615931239548	0
367	143934	46.634280830081	0
367	144923	46.639280830081	0
367	145635	46.644280830081	0
367	147098	46.649280830081	0
367	147641	46.654280830081	0
367	150173	46.668324237202	0
367	151230	46.673324237202	0
367	152124	46.679782035944	0
367	152999	46.684782035944	0
367	154341	46.692439287031	0
367	155134	46.697439287031	0
367	155596	46.702439287031	0
367	156407	46.707439287031	0
367	157320	46.7146156131	0
367	158302	46.7196156131	0
367	159158	46.7246156131	0
367	160275	46.72990023071	0
367	161410	46.73490023071	0
367	162210	46.73990023071	0
367	163012	46.74490023071	0
367	164065	46.74990023071	0
367	164870	46.75490023071	0
367	165919	46.75990023071	0
367	166792	46.76490023071	0
367	167479	46.76990023071	0
367	169049	46.779545326049	0
367	169897	46.784545326049	0
367	170802	46.790084247317	0
367	171599	46.795084247317	0
367	172463	46.800084247317	0
367	173142	46.805084247317	0
367	173977	46.810084247317	0
367	174524	46.815084247317	0
367	175341	46.820084247317	0
367	175781	46.825084247317	0
367	176651	46.832305641956	0
367	177073	46.837305641956	0
367	177637	46.842330407157	0
367	178098	46.847330407157	0
367	179098	46.852330407157	0
367	179799	46.861655774788	0
367	180676	46.866655774788	0
367	181582	46.871655774788	0
367	182406	46.877551314499	0
367	182410	46.882551314499	0
367	183410	46.894575589994	0
367	184400	46.899575589994	0
367	184863	46.904575589994	0
367	185330	46.909575589994	0
367	185551	46.914575589994	0
367	186897	46.933155205851	0
367	187432	46.938155205851	0
367	188341	46.952034142114	0
367	188793	46.957034142114	0
367	189155	46.962034142114	0
367	189254	46.967034142114	0
367	189598	46.973259869595	0
367	189599	46.978259869595	0
367	190221	47.013583095312	0
367	190222	47.018583095312	0
367	190542	47.505	24
367	191526	47.51	0
367	192728	47.515	0
367	193585	47.52	0
367	194345	47.525	0
367	195059	47.53	0
367	195661	47.535295765644	0
367	196325	47.540295765644	0
367	198786	47.553430346653	0
367	199547	47.558430346653	0
367	200266	47.563430346653	0
367	201111	47.568430346653	0
367	201644	47.573430346653	0
367	202412	47.578430346653	0
367	203128	47.583430346653	0
367	203889	47.588430346653	0
367	204913	47.593430346653	0
367	206199	47.600775096453	0
367	207182	47.605775096453	0
367	207493	47.610775096453	0
367	208777	47.616571738045	0
367	209511	47.621571738045	0
367	210266	47.626571738045	0
367	212353	47.642290734678	0
367	213228	47.647290734678	0
367	213794	47.652290734678	0
367	214428	47.657382627326	0
367	215289	47.662382627326	0
367	216131	47.667382627326	0
367	216850	47.672382627326	0
367	217477	47.680301799191	0
367	218005	47.685301799191	0
367	218796	47.690301799191	0
367	219329	47.695301799191	0
367	220577	47.70145615941	0
367	221223	47.70645615941	0
367	221786	47.71145615941	0
367	222504	47.71645615941	0
367	223135	47.72145615941	0
367	223762	47.72645615941	0
367	224559	47.732478372621	0
367	225110	47.737478372621	0
367	225248	47.743559662062	0
367	225349	47.748559662062	0
367	226183	47.754770707093	0
367	226383	47.759770707093	0
367	227160	47.764882287865	0
367	227161	47.769882287865	0
367	227583	47.782949566892	0
367	227688	47.787949566892	0
367	228569	47.800259899974	0
367	228907	47.805259899974	0
367	229331	47.810259899974	0
367	229332	47.815259899974	0
367	230060	47.826277386111	0
367	230178	47.831277386111	0
367	230923	47.838997407446	0
367	231024	47.843997407446	0
367	231210	48.505	1
367	231220	48.51	0
367	233518	48.517184861531	35
367	235169	48.522184861531	0
367	236680	48.527354733421	0
367	237867	48.532354733421	0
367	238794	48.537354733421	0
367	239947	48.542354733421	0
367	241062	48.547354733421	0
367	242035	48.552354733421	0
367	244859	48.564272484266	0
367	245752	48.569272484266	0
367	246550	48.574715504352	0
367	247762	48.579715504352	0
367	248672	48.584715504352	0
367	249596	48.589715504352	0
367	250598	48.594715504352	0
367	251533	48.599715504352	0
367	252337	48.604715504352	0
367	253546	48.609715504352	0
367	254861	48.614715504352	0
367	256032	48.619715504352	0
367	257033	48.624715504352	0
367	259412	48.638600887665	0
367	259999	48.643600887665	0
367	262295	48.65705430162	0
367	263009	48.66205430162	0
367	263549	48.66705430162	0
367	264679	48.672823318284	0
367	265513	48.677823318284	0
367	267389	48.689263811093	0
367	268066	48.694263811093	0
367	269131	48.699263811093	0
367	270007	48.704263811093	0
367	270838	48.709263811093	0
367	271824	48.714263811093	0
367	272765	48.719263811093	0
367	274212	48.725178152082	0
367	275517	48.730178152082	0
367	276530	48.735178152082	0
367	278179	48.743926071877	0
367	279202	48.748926071877	0
367	280844	48.760212300754	0
367	281685	48.765212300754	0
367	282123	48.770212300754	0
367	283237	48.777362112541	0
367	284207	48.782362112541	0
367	284770	48.787362112541	0
367	285758	48.792362112541	0
367	286191	48.797362112541	0
367	286856	48.804592159562	0
367	287317	48.809592159562	0
367	287664	48.814592159562	0
367	288225	48.819592159562	0
367	289470	48.82688645662	0
367	289842	48.83188645662	0
367	290403	48.83688645662	0
367	290775	48.842275350596	0
367	290876	48.847275350596	0
367	291704	48.852569911392	0
367	292128	48.857569911392	0
367	292576	48.862569911392	0
367	292580	48.867569911392	0
367	293939	48.912712525463	0
367	293940	48.917712525463	0
367	294386	48.950162765433	0
367	294387	48.955162765433	0
367	295122	49.017962769624	0
367	295476	49.022962769624	0
367	295477	49.027962769624	0
367	296012	49.062042794275	0
367	296332	49.067042794275	0
367	296363	49.505	1
367	296468	49.51	0
367	298270	49.515346265392	51
367	300765	49.520346265392	0
367	302336	49.525346265392	0
367	303593	49.530346265392	0
367	304801	49.535346265392	0
367	305640	49.540346265392	0
367	306694	49.545346265392	0
367	308543	49.550346265392	0
367	309577	49.555346265392	0
367	311104	49.560346265392	0
367	311999	49.565346265392	0
367	313101	49.570346265392	0
367	314408	49.575346265392	0
367	315719	49.580346265392	0
367	317533	49.588155720498	0
367	318416	49.593155720498	0
367	319951	49.598412221288	0
367	321083	49.603412221288	0
367	322311	49.608412221288	0
367	323238	49.613412221288	0
367	324439	49.618412221288	0
367	325844	49.623412221288	0
367	327595	49.629780135038	0
367	328649	49.634780135038	0
367	329767	49.639780135038	0
367	330677	49.644780135038	0
367	332945	49.656429227114	0
367	333717	49.661429227114	0
367	340415	49.692000566336	0
367	342020	49.697000566336	0
367	342670	49.702000566336	0
367	343749	49.707348217385	0
367	345184	49.712348217385	0
367	346413	49.717348217385	0
367	347713	49.724172221662	0
367	348685	49.729172221662	0
367	349796	49.734172221662	0
367	351142	49.739172221662	0
367	352059	49.744172221662	0
367	353066	49.749172221662	0
367	353958	49.754172221662	0
367	355297	49.759172221662	0
367	357241	49.769733341257	0
367	358143	49.774733341257	0
367	362892	49.799532535985	0
367	363701	49.804532535985	0
367	364677	49.809532535985	0
367	365725	49.814532535985	0
367	366035	49.819532535985	0
367	367638	49.82817701133	0
367	368324	49.83317701133	0
367	369249	49.83817701133	0
367	371216	49.847854720963	0
367	371950	49.852854720963	0
367	372394	49.857854720963	0
367	373279	49.862854720963	0
367	374635	49.868891917962	0
367	375668	49.873891917962	0
367	376395	49.880069388579	0
367	377231	49.885069388579	0
367	378273	49.890069388579	0
367	379225	49.895069388579	0
367	380342	49.900069388579	0
367	381588	49.906948433547	0
367	382490	49.911948433547	0
367	383017	49.916948433547	0
367	384276	49.925583152527	0
367	385183	49.930583152527	0
367	386087	49.935583152527	0
367	387194	49.940583152527	0
367	387399	49.945583152527	0
367	388112	49.951022725303	0
367	388695	49.956022725303	0
367	389478	49.961022725303	0
367	390993	49.971563383684	0
367	391673	49.976563383684	0
367	392505	49.983041344299	0
367	393484	49.988041344299	0
367	394319	49.993041344299	0
367	394984	49.998041344299	0
367	395420	50.003041344299	0
367	396354	50.017281742609	0
367	396458	50.022281742609	0
367	397309	50.027281742609	0
367	397310	50.032281742609	0
367	397778	50.047150030998	0
367	397779	50.052150030998	0
367	398584	50.072778878935	0
367	398728	50.077778878935	0
367	398757	50.505	1
367	399725	50.51	34
367	401920	50.515	0
367	403330	50.52	0
367	404844	50.525	0
367	405938	50.53	0
367	406663	50.535	0
367	407640	50.54	0
367	409491	50.549300181154	0
367	410797	50.554300181154	0
367	411728	50.559300181154	0
367	412967	50.564300181154	0
367	414112	50.569300181154	0
367	415583	50.575271764052	0
367	416675	50.580271764052	0
367	417898	50.585271764052	0
367	419081	50.590271764052	0
367	420769	50.597322665399	0
367	421892	50.602322665399	0
367	422879	50.607322665399	0
367	424511	50.612322665399	0
367	425782	50.617322665399	0
367	426699	50.622322665399	0
367	427813	50.627322665399	0
367	429040	50.632322665399	0
367	430680	50.638705477871	0
367	431251	50.643705477871	0
367	432033	50.648705477871	0
367	433185	50.653705477871	0
367	435804	50.670241573121	0
367	436690	50.675241573121	0
367	437971	50.680241573121	0
367	438845	50.685241573121	0
367	439490	50.690241573121	0
367	440217	50.696650715836	0
367	441136	50.701650715836	0
367	442047	50.706650715836	0
367	442996	50.711650715836	0
367	444586	50.721506690428	0
367	445383	50.726506690428	0
367	446231	50.731506690428	0
367	446701	50.736506690428	0
367	448505	50.748147270362	0
367	449309	50.753147270362	0
367	450177	50.758147270362	0
367	450636	50.763147270362	0
367	451102	50.770471431328	0
367	451669	50.775471431328	0
367	452784	50.780471431328	0
367	453590	50.785471431328	0
367	454840	50.791695507816	0
367	455314	50.796695507816	0
367	455758	50.801695507816	0
367	456804	50.807315061879	0
367	457472	50.812315061879	0
367	458343	50.817315061879	0
367	458826	50.822315061879	0
367	458832	50.827315061879	0
367	460314	50.837427286215	0
367	460849	50.842427286215	0
367	461319	50.861857047882	0
367	461771	50.866857047882	0
367	461772	50.871857047882	0
367	462229	50.883317017419	0
367	462230	50.888317017419	0
367	462902	51.505	1
367	463279	51.51	33
367	464693	51.515	0
367	466246	51.52	0
367	467425	51.525	0
367	468995	51.53	0
367	470111	51.535	0
367	471114	51.54	0
367	472676	51.545	0
367	473978	51.55	0
367	475085	51.555	0
367	476056	51.56	0
367	476768	51.565	0
367	477900	51.57	0
367	479076	51.575	0
367	479815	51.58	0
367	480907	51.585	0
367	484442	51.603575194967	0
367	485514	51.608575194967	0
367	486575	51.613575194967	0
367	488868	51.625583530291	0
367	489880	51.630583530291	0
367	492201	51.640922982267	0
367	493121	51.645922982267	0
367	494561	51.650922982267	0
367	495651	51.655922982267	0
367	496605	51.661289965195	0
367	497682	51.666289965195	0
367	498475	51.671289965195	0
367	499101	51.676289965195	0
367	500664	51.685360582587	0
367	501542	51.690360582587	0
367	502189	51.695360582587	0
367	503383	51.701629787068	0
367	504109	51.706629787068	0
367	505118	51.711629787068	0
367	506140	51.716629787068	0
367	507305	51.721629787068	0
367	508530	51.729215544638	0
367	509122	51.734215544638	0
367	510135	51.739215544638	0
367	511065	51.745640606577	0
367	511972	51.750640606577	0
367	512929	51.755640606577	0
367	513359	51.760640606577	0
367	514363	51.770239802634	0
367	515319	51.775239802634	0
367	516121	51.780239802634	0
367	516564	51.785239802634	0
367	517034	51.790239802634	0
367	517604	51.795239802634	0
367	518291	51.800239802634	0
367	519251	51.805239802634	0
367	521372	51.823207581056	0
367	521849	51.828207581056	0
367	523396	51.836345686835	0
367	523945	51.841345686835	0
367	524512	51.851169833766	0
367	524959	51.856169833766	0
367	525640	51.861169833766	0
367	526193	51.868752673234	0
367	526643	51.873752673234	0
367	526866	51.878752673234	0
367	527526	51.883752673234	0
367	527768	51.888752673234	0
367	528462	51.901687815083	0
367	528465	51.906687815083	0
367	529121	51.911687815083	0
367	529463	51.916687815083	0
367	529782	51.921687815083	0
367	530340	51.926687815083	0
367	530698	51.931687815083	0
367	531256	51.939684574927	0
367	531739	51.944684574927	0
367	532119	51.949684574927	0
367	532120	51.954684574927	0
367	532565	51.974933207227	0
367	532566	51.979933207227	0
367	532791	52.505	1
367	532896	52.51	0
367	534873	52.516396060179	46
367	536978	52.521396060179	0
367	538358	52.52665988844	0
367	539519	52.53165988844	0
367	540312	52.53665988844	0
367	541113	52.54165988844	0
367	542594	52.54665988844	0
367	543904	52.55165988844	0
367	545213	52.55665988844	0
367	546652	52.56165988844	0
367	547805	52.56665988844	0
367	549363	52.57165988844	0
367	550413	52.57665988844	0
367	551230	52.58165988844	0
367	552615	52.58665988844	0
367	554135	52.59165988844	0
367	555593	52.59715047967	0
367	556906	52.60215047967	0
367	558395	52.607422721621	0
367	559336	52.612422721621	0
367	560336	52.617422721621	0
367	565150	52.642261140944	0
367	566576	52.647261140944	0
367	567794	52.653150570506	0
367	568539	52.658150570506	0
367	569484	52.663150570506	0
367	570856	52.668150570506	0
367	571875	52.673150570506	0
367	573024	52.678150570506	0
367	574138	52.683150570506	0
367	574712	52.688150570506	0
367	577184	52.700238726204	0
367	578309	52.705238726204	0
367	579234	52.710238726204	0
367	580018	52.715238726204	0
367	581162	52.72048216337	0
367	582063	52.72548216337	0
367	583105	52.731234818398	0
367	584176	52.736234818398	0
367	584764	52.741234818398	0
367	586272	52.748581080961	0
367	587391	52.753581080961	0
367	587994	52.758581080961	0
367	588908	52.763581080961	0
367	589891	52.768581080961	0
367	590994	52.775247069532	0
367	592082	52.780247069532	0
367	593141	52.785247069532	0
367	593934	52.790247069532	0
367	595049	52.795247069532	0
367	595899	52.800247069532	0
367	596925	52.805247069532	0
367	597516	52.810247069532	0
367	598656	52.818007025029	0
367	599429	52.823007025029	0
367	599980	52.828007025029	0
367	600998	52.833007025029	0
367	601669	52.838007025029	0
367	602729	52.846242011834	0
367	604118	52.851242011834	0
367	605028	52.856242011834	0
367	605757	52.861242011834	0
367	606666	52.866561729642	0
367	606908	52.871561729642	0
367	607920	52.876561729642	0
367	608844	52.885028828552	0
367	609307	52.890028828552	0
367	609979	52.895028828552	0
367	610876	52.900028828552	0
367	611542	52.905028828552	0
367	612026	52.910028828552	0
367	612697	52.915028828552	0
367	613598	52.920028828552	0
367	614587	52.925028828552	0
367	615065	52.930028828552	0
367	615422	52.935028828552	0
367	617093	52.968569054658	0
367	617233	52.973569054658	0
367	617895	53.01161456429	0
367	617896	53.01661456429	0
367	617932	53.505	1
367	618276	53.51	20
367	619707	53.515	0
367	621014	53.52	0
367	621945	53.525	0
367	623208	53.53	0
367	624243	53.535	0
367	624718	53.54	0
367	625057	53.546853339236	0
367	625558	53.551853339236	0
367	626174	53.556853339236	0
367	627366	53.561853339236	0
367	628398	53.566853339236	0
367	629306	53.571853339236	0
367	630409	53.576853339236	0
367	630839	53.581853339236	0
367	631753	53.586853339236	0
367	632637	53.591853339236	0
367	633183	53.596853339236	0
367	634079	53.601853339236	0
367	634673	53.606853339236	0
367	635395	53.611853339236	0
367	635943	53.616853339236	0
367	637223	53.626055110634	0
367	638059	53.631055110634	0
367	639043	53.636055110634	0
367	639846	53.641055110634	0
367	640526	53.646055110634	0
367	641400	53.651055110634	0
367	642001	53.656055110634	0
367	642655	53.661055110634	0
367	643959	53.668411245104	0
367	644904	53.673411245104	0
367	645560	53.678411245104	0
367	646360	53.683411245104	0
367	647059	53.688411245104	0
367	647765	53.693411245104	0
367	648349	53.698411245104	0
367	649811	53.711016269133	0
367	650542	53.716016269133	0
367	651470	53.72458622976	0
367	651919	53.72958622976	0
367	652814	53.742423931422	0
367	653286	53.747423931422	0
367	653756	53.752423931422	0
367	654236	53.757423931422	0
367	654687	53.762423931422	0
367	655113	53.767423931422	0
367	655569	53.781780914706	0
367	655570	53.786780914706	0
367	655797	54.505	1
367	656494	54.51	51
367	658544	54.515	0
367	660076	54.52	0
367	661956	54.525	0
367	663024	54.53	0
367	664243	54.535	0
367	665171	54.54	0
367	667572	54.548337041982	0
367	668693	54.553337041982	0
367	670157	54.558337041982	0
367	671280	54.563337041982	0
367	672436	54.568337041982	0
367	675318	54.581670158795	0
367	676792	54.586670158795	0
367	677386	54.591670158795	0
367	678552	54.596670158795	0
367	679547	54.601670158795	0
367	681784	54.611917971662	0
367	683036	54.616917971662	0
367	684317	54.621917971662	0
367	685812	54.628981817474	0
367	687005	54.633981817474	0
367	688535	54.638981817474	0
367	689809	54.645378504344	0
367	691073	54.650378504344	0
367	692008	54.655378504344	0
367	693959	54.663508750161	0
367	694842	54.668508750161	0
367	696534	54.674232213527	0
367	697625	54.679232213527	0
367	698820	54.684232213527	0
367	700932	54.694207548952	0
367	701860	54.699207548952	0
367	703935	54.710306334158	0
367	704997	54.715306334158	0
367	706507	54.720306334158	0
367	707956	54.725306334158	0
367	709209	54.730306334158	0
367	710357	54.735306334158	0
367	711974	54.743468829132	0
367	713315	54.748468829132	0
367	714529	54.753468829132	0