version 2
run AODVScenario_1f-54-20121119-16:21:35-3604
attr configname AODVScenario_1f
attr datetime 20121119-16:21:35
attr experiment AODVScenario_1f
attr inifile AODV.ini
attr iterationvars $numNodes=104
attr iterationvars2 "$numNodes=104, $repetition=0"
attr measurement $numNodes=104
attr network csma802154net
attr numNodes 104
attr processid 3604
attr repetition 0
attr replication #0
attr resultdir results
attr runnumber 54
attr seedset 54

vector 427  csma802154net.dataCentricNetworkMan  RREQPacketFrequency  ETV
vector 428  csma802154net.dataCentricNetworkMan  RERRPacketFrequency  ETV
vector 429  csma802154net.dataCentricNetworkMan  DiscoveryPacketFrequency  ETV
vector 430  csma802154net.dataCentricNetworkMan  RegisterPacketFrequency  ETV
vector 431  csma802154net.dataCentricNetworkMan  RReplyPacketFrequency  ETV
vector 432  csma802154net.dataCentricNetworkMan  AODVDataPacketFrequency  ETV
vector 439  csma802154net.dataCentricNetworkMan  pendingRegistrationVector  ETV
vector 438  csma802154net.dataCentricNetworkMan  pendingRREQVector  ETV
vector 436  csma802154net.dataCentricNetworkMan  PendingDataPacketsVector  ETV
vector 446  csma802154net.fixhost[6].udpApp  "End-to-end delay"  ETV
vector 424  csma802154net.dataCentricNetworkMan  dataPacketE2EDelay  ETV
vector 451  csma802154net.fixhost[11].udpApp  "End-to-end delay"  ETV
vector 449  csma802154net.fixhost[9].udpApp  "End-to-end delay"  ETV
vector 450  csma802154net.fixhost[10].udpApp  "End-to-end delay"  ETV
vector 453  csma802154net.fixhost[13].udpApp  "End-to-end delay"  ETV
vector 443  csma802154net.fixhost[3].udpApp  "End-to-end delay"  ETV
vector 457  csma802154net.fixhost[17].udpApp  "End-to-end delay"  ETV
vector 445  csma802154net.fixhost[5].udpApp  "End-to-end delay"  ETV
vector 448  csma802154net.fixhost[8].udpApp  "End-to-end delay"  ETV
vector 452  csma802154net.fixhost[12].udpApp  "End-to-end delay"  ETV
424	1034724	70.009636020401	0.009636020401
424	1035224	70.015036039908	0.015036039908
424	1038607	71.022884073672	0.022884073672
424	1039135	71.027396105404	0.027396105404
424	1040132	71.034004132386	0.034004132386
424	1043575	72.03632407836	0.03632407836
424	1044111	72.040764106408	0.040764106408
424	1047070	73.022956069231	0.022956069231
424	1048941	73.034684107134	0.034684107134
424	1051125	73.069700143393	0.069700143393
424	1179431	670.011236020401	0.011236020401
424	1179929	670.015676039908	0.015676039908
424	1182790	671.022316073671	0.022316073671
424	1183834	671.032124105403	0.032124105403
424	1184835	671.041684132385	0.041684132385
424	1188277	672.02320407836	0.02320407836
424	1188813	672.028924106408	0.028924106408
424	1192820	673.038556135723	0.038556135723
424	1194202	673.069164171173	0.069164171173
424	1195297	673.079292203452	0.079292203452
424	1323602	1270.008996020401	0.008996020401
424	1324101	1270.012796039908	0.012796039908
424	1326962	1271.021036073672	0.021036073672
424	1328009	1271.028924105404	0.028924105404
424	1329010	1271.039052132386	0.039052132386
424	1332163	1272.02295607836	0.02295607836
424	1333204	1272.054844106408	0.054844106408
424	1336163	1273.020716069231	0.020716069231
424	1337912	1273.031804107134	0.031804107134
424	1339653	1273.065860143392	0.065860143392
424	1468062	1870.009636020401	0.009636020401
424	1468561	1870.014076039908	0.014076039908
424	1471421	1871.023276073671	0.023276073671
424	1473983	1871.078132105401	0.078132105401
424	1474978	1871.084812132383	0.084812132383
424	1478937	1872.024484078358	0.024484078358
424	1479473	1872.029884106406	0.029884106406
424	1482429	1873.022956069231	0.022956069231
424	1484590	1873.034364107134	0.034364107134
424	1485679	1873.041044143392	0.041044143392
424	1613984	2470.008996020401	0.008996020401
424	1614483	2470.014396039908	0.014396039908
424	1617344	2471.021996073672	0.021996073672
424	1618392	2471.030524105404	0.030524105404
424	1619392	2471.038732132386	0.038732132386
424	1622334	2472.02359607836	0.02359607836
424	1623367	2472.030204106408	0.030204106408
424	1627379	2473.037596135722	0.037596135722
424	1628491	2473.043884171173	0.043884171173
424	1629585	2473.051204203452	0.051204203452
424	1757890	3070.0086760204	0.0086760204
424	1758389	3070.012796039907	0.012796039907
424	1761253	3071.022636073672	0.022636073672
424	1762760	3071.030204105404	0.030204105404
424	1763258	3071.032724132386	0.032724132386
424	1766677	3072.024836106408	0.024836106408
424	1767231	3072.02704407836	0.02704407836
424	1770405	3073.02551606923	0.02551606923
424	1772570	3073.060244140378	0.060244140378
424	1773665	3073.068844172657	0.068844172657
424	1902074	3670.007396020401	0.007396020401
424	1902573	3670.011836039908	0.011836039908
424	1905960	3671.023204073672	0.023204073672
424	1906968	3671.030484132386	0.030484132386
424	1907523	3671.035572105404	0.035572105404
424	1910909	3672.023556106408	0.023556106408
424	1911463	3672.02608407836	0.02608407836
424	1915470	3673.036316135722	0.036316135722
424	1916852	3673.067244171173	0.067244171173
424	1917948	3673.078012203452	0.078012203452
424	2046253	4270.0086760204	0.0086760204
424	2046752	4270.012156039907	0.012156039907
424	2050135	4271.02416407367	0.02416407367
424	2051146	4271.032404132385	0.032404132385
424	2051697	4271.034684105402	0.034684105402
424	2054603	4272.024876078357	0.024876078357
424	2055639	4272.032764106406	0.032764106406
424	2059642	4273.030876135721	0.030876135721
424	2061323	4273.041964171172	0.041964171172
424	2061854	4273.04391620345	0.04391620345
424	2190159	4870.009316020401	0.009316020401
424	2190658	4870.013116039908	0.013116039908
424	2193733	4871.020076073672	0.020076073672
424	2195268	4871.051924132386	0.051924132386
424	2195824	4871.060140105404	0.060140105404
424	2198730	4872.02231607836	0.02231607836
424	2199766	4872.030204106408	0.030204106408
424	2203770	4873.031836135723	0.031836135723
424	2205128	4873.040364171173	0.040364171173
424	2206228	4873.070012203452	0.070012203452
424	2334638	5470.010276020401	0.010276020401
424	2335136	5470.014716039908	0.014716039908
424	2337997	5471.022636073672	0.022636073672
424	2339528	5471.037844132386	0.037844132386
424	2340083	5471.044780105404	0.044780105404
424	2342989	5472.022956078359	0.022956078359
424	2344025	5472.031484106407	0.031484106407
424	2347213	5473.021356069231	0.021356069231
424	2350484	5473.061092172659	0.061092172659
424	2351013	5473.06362014038	0.06362014038
424	2479330	6070.008036020401	0.008036020401
424	2479829	6070.013436039908	0.013436039908
424	2482690	6071.021996073671	0.021996073671
424	2484216	6071.035924132385	0.035924132385
424	2484772	6071.042612105403	0.042612105403
424	2487677	6072.020716078359	0.020716078359
424	2488707	6072.027396106407	0.027396106407
424	2492431	6073.02263606923	0.02263606923
424	2494290	6073.054524107133	0.054524107133
424	2495908	6073.080012143392	0.080012143392
424	2624213	6670.009316020401	0.009316020401
424	2624712	6670.014396039908	0.014396039908
424	2628091	6671.02320407367	0.02320407367
424	2629103	6671.030556132384	0.030556132384
424	2629658	6671.036532105402	0.036532105402
424	2632778	6672.02295607836	0.02295607836
424	2633818	6672.050684106408	0.050684106408
424	2636777	6673.02263606923	0.02263606923
424	2638892	6673.056052107133	0.056052107133
424	2640511	6673.089468143391	0.089468143391
424	2768920	7270.0077160204	0.0077160204
424	2769419	7270.012156039906	0.012156039906
424	2772278	7271.019436073671	0.019436073671
424	2775329	7271.085060132385	0.085060132385
424	2775883	7271.087836105403	0.087836105403
424	2778788	7272.02071607836	0.02071607836
424	2779818	7272.027396106407	0.027396106407
424	2784374	7273.028636135722	0.028636135722
424	2785494	7273.040364171172	0.040364171172
424	2786590	7273.052732203452	0.052732203452
427	834	1.005	1
427	1137	1.01	28
427	2137	1.015	104
427	3845	1.02	131
427	6521	1.025	104
427	9295	1.03	68
427	12222	1.035	81
427	14728	1.04	69
427	16576	1.045	117
427	18202	1.05	23
427	19897	1.055	103
427	20938	1.06	77
427	22262	1.065	88
427	22830	1.07	49
427	24209	1.075	55
427	25425	1.08	61
427	26504	1.085	87
427	27255	1.09	60
427	27968	1.095	35
427	28302	1.1	47
427	28303	1.105	0
427	29486	1.117572005557	106
427	30051	1.122572005557	50
427	30906	1.127572005557	84
427	31730	1.132572005557	81
427	31959	1.137572005557	26
427	32440	1.142572005557	28
427	32741	1.147572005557	17
427	33404	1.152572005557	70
427	33878	1.157572005557	53
427	33879	1.162572005557	0
427	34326	1.172935042257	47
427	34327	1.177935042257	0
427	43370	43.505	1
427	43796	43.51	30
427	45131	43.515	0
427	46904	43.52	0
427	48092	43.525136691344	0
427	48834	43.530136691344	0
427	49823	43.535136691344	0
427	50740	43.540136691344	0
427	52149	43.545136691344	0
427	52913	43.550136691344	0
427	53898	43.555136691344	0
427	54748	43.560136691344	0
427	55641	43.566313596091	0
427	56774	43.571313596091	0
427	57384	43.576313596091	0
427	58851	43.583425592776	0
427	59835	43.588425592776	0
427	60722	43.593425592776	0
427	61578	43.599426418046	0
427	62690	43.604426418046	0
427	63267	43.609426418046	0
427	65081	43.620586430094	0
427	66311	43.625586430094	0
427	67273	43.630586430094	0
427	67788	43.635586430094	0
427	68541	43.640586430094	0
427	69438	43.645586430094	0
427	70311	43.650586430094	0
427	72183	43.663478190537	0
427	73006	43.668478190537	0
427	73913	43.674395435685	0
427	75256	43.679395435685	0
427	76481	43.684395435685	0
427	77240	43.689395435685	0
427	78388	43.694395435685	0
427	79151	43.699395435685	0
427	80121	43.704395435685	0
427	80869	43.709395435685	0
427	81806	43.714395435685	0
427	82822	43.719638600223	0
427	83596	43.724638600223	0
427	84713	43.732361860667	0
427	85336	43.737361860667	0
427	86404	43.742361860667	0
427	88943	43.755838206247	0
427	89824	43.760838206247	0
427	90438	43.765838206247	0
427	91178	43.770838206247	0
427	91802	43.775838206247	0
427	91922	43.780838206247	0
427	92977	43.786882808852	0
427	93982	43.791882808852	0
427	94841	43.796882808852	0
427	95211	43.801882808852	0
427	95567	43.806882808852	0
427	97832	43.832543385529	0
427	98073	43.837543385529	0
427	98563	43.867535345911	0
427	98564	43.872535345911	0
427	98899	44.505	1
427	101502	44.51	52
427	103462	44.515	0
427	104436	44.52	0
427	107423	44.530174976781	0
427	109200	44.535174976781	0
427	110660	44.540174976781	0
427	111844	44.545174976781	0
427	112951	44.550174976781	0
427	113967	44.555174976781	0
427	114990	44.560174976781	0
427	116787	44.565174976781	0
427	117938	44.570174976781	0
427	119331	44.575174976781	0
427	121239	44.583778879464	0
427	122621	44.588778879464	0
427	123661	44.593778879464	0
427	124867	44.598778879464	0
427	126916	44.605078186329	0
427	127984	44.610078186329	0
427	130182	44.618485081941	0
427	130937	44.623485081941	0
427	132596	44.628633070581	0
427	133861	44.633633070581	0
427	136486	44.642559264917	0
427	137489	44.647559264917	0
427	138876	44.653228383817	0
427	139635	44.658228383817	0
427	141214	44.666247599736	0
427	142790	44.671247599736	0
427	145156	44.685082900259	0
427	146061	44.690082900259	0
427	147671	44.695082900259	0
427	151104	44.708278239532	0
427	152390	44.713278239532	0
427	153964	44.718278239532	0
427	155065	44.723278239532	0
427	157409	44.732782241904	0
427	158166	44.737782241904	0
427	161724	44.754387501068	0
427	162940	44.759387501068	0
427	164432	44.764387501068	0
427	165990	44.769387501068	0
427	167150	44.774387501068	0
427	168149	44.779387501068	0
427	169445	44.784387501068	0
427	170572	44.789387501068	0
427	172263	44.794387501068	0
427	173620	44.799387501068	0
427	174881	44.804387501068	0
427	176036	44.809387501068	0
427	176967	44.814387501068	0
427	178042	44.819387501068	0
427	180494	44.829990929024	0
427	181263	44.834990929024	0
427	182988	44.84432630274	0
427	183892	44.84932630274	0
427	185254	44.85432630274	0
427	186470	44.860006050715	0
427	187657	44.865006050715	0
427	188549	44.870006050715	0
427	189360	44.875006050715	0
427	192204	44.889802580041	0
427	193092	44.894802580041	0
427	193603	44.899802580041	0
427	195107	44.907490723403	0
427	196548	44.912490723403	0
427	197546	44.917490723403	0
427	198671	44.922490723403	0
427	199319	44.927490723403	0
427	200366	44.932490723403	0
427	201153	44.937490723403	0
427	202402	44.942490723403	0
427	203236	44.947490723403	0
427	205055	44.957299518632	0
427	205584	44.962299518632	0
427	206132	44.967299518632	0
427	206674	44.972299518632	0
427	207367	44.977299518632	0
427	209348	44.988674792401	0
427	209996	44.993674792401	0
427	210521	44.998674792401	0
427	211134	45.003674792401	0
427	211625	45.008674792401	0
427	212139	45.019274869394	0
427	212140	45.024274869394	0
427	212669	45.031307097018	0
427	212676	45.036307097018	0
427	213208	45.043689091067	0
427	213209	45.048689091067	0
427	213225	45.505	1
427	214004	45.51	29
427	215764	45.515	0
427	216749	45.52	0
427	218876	45.531084914897	0
427	219724	45.536084914897	0
427	221186	45.545080058578	0
427	222379	45.550080058578	0
427	223150	45.555080058578	0
427	224320	45.562156311529	0
427	224922	45.567156311529	0
427	226617	45.575086287502	0
427	227861	45.580086287502	0
427	228776	45.585086287502	0
427	229791	45.590086287502	0
427	232499	45.606895143455	0
427	233342	45.611895143455	0
427	235792	45.623831187342	0
427	236634	45.628831187342	0
427	237593	45.633831187342	0
427	239131	45.644597903097	0
427	239988	45.649597903097	0
427	240484	45.654597903097	0
427	242114	45.664404380024	0
427	242647	45.669404380024	0
427	243476	45.674404380024	0
427	244576	45.682117966079	0
427	245633	45.687117966079	0
427	246370	45.692419007149	0
427	247146	45.697419007149	0
427	248239	45.702459950304	0
427	249083	45.707459950304	0
427	249801	45.712459950304	0
427	250799	45.717459950304	0
427	252014	45.722459950304	0
427	252896	45.727459950304	0
427	253523	45.732459950304	0
427	255501	45.743628820805	0
427	256117	45.748628820805	0
427	257215	45.758437265851	0
427	258131	45.763437265851	0
427	258725	45.768437265851	0
427	260112	45.777533300897	0
427	260745	45.782533300897	0
427	261769	45.787533300897	0
427	262607	45.792533300897	0
427	263675	45.800620927732	0
427	264148	45.805620927732	0
427	265053	45.811598940301	0
427	265928	45.816598940301	0
427	266999	45.821598940301	0
427	267741	45.826598940301	0
427	268710	45.831598940301	0
427	269564	45.836598940301	0
427	270526	45.841598940301	0
427	270996	45.846598940301	0
427	271901	45.851598940301	0
427	272402	45.856598940301	0
427	272672	45.861598940301	0
427	273184	45.866598940301	0
427	273917	45.871598940301	0
427	274031	45.876598940301	0
427	275039	45.901604337947	0
427	275689	45.906604337947	0
427	275926	45.911604337947	0
427	276142	46.505	1
427	276152	46.51	0
427	277970	46.517982969285	21
427	278970	46.522982969285	0
427	280324	46.531199928005	0
427	280913	46.536199928005	0
427	282266	46.541199928005	0
427	283384	46.546199928005	0
427	284669	46.551199928005	0
427	285428	46.556199928005	0
427	286302	46.561199928005	0
427	287149	46.566199928005	0
427	288042	46.571199928005	0
427	289004	46.576199928005	0
427	290309	46.582610740229	0
427	291186	46.587610740229	0
427	292075	46.592610740229	0
427	293007	46.597610740229	0
427	294557	46.609074774982	0
427	295186	46.614074774982	0
427	295952	46.619074774982	0
427	297399	46.624074774982	0
427	298155	46.629074774982	0
427	299353	46.636446816804	0
427	299736	46.641446816804	0
427	301881	46.657389124294	0
427	302878	46.662389124294	0
427	303971	46.667389124294	0
427	304705	46.672389124294	0
427	305444	46.677389124294	0
427	306059	46.682389124294	0
427	306426	46.687743561717	0
427	306680	46.692743561717	0
427	309027	46.708951946211	0
427	310228	46.713951946211	0
427	310727	46.718951946211	0
427	311509	46.723951946211	0
427	312372	46.728951946211	0
427	312889	46.733951946211	0
427	313638	46.738951946211	0
427	314564	46.748187787022	0
427	314828	46.753187787022	0
427	315679	46.774446913778	0
427	315792	46.779446913778	0
427	316280	46.789460609698	0
427	316282	46.794460609698	0
427	317402	46.821889637605	0
427	317791	46.826889637605	0
427	317792	46.831889637605	0
427	318014	47.505	1
427	318371	47.51	19
427	319566	47.515	0
427	320600	47.52	0
427	321376	47.525	0
427	322485	47.534257766905	0
427	323252	47.539257766905	0
427	324246	47.544257766905	0
427	325606	47.549257766905	0
427	326699	47.554257766905	0
427	327415	47.559257766905	0
427	328433	47.5647775188	0
427	329117	47.5697775188	0
427	329987	47.5747775188	0
427	332911	47.59317298593	0
427	333279	47.59817298593	0
427	333913	47.60317298593	0
427	334773	47.60817298593	0
427	335409	47.61317298593	0
427	336281	47.61817298593	0
427	336774	47.62317298593	0
427	337489	47.632875037271	0
427	337496	47.637875037271	0
427	337977	47.644792870474	0
427	338455	47.649792870474	0
427	338947	47.654792870474	0
427	339955	47.662153799235	0
427	340434	47.667153799235	0
427	340683	47.672153799235	0
427	341577	47.677153814575	0
427	342059	47.682153814575	0
427	342537	47.688424884858	0
427	342907	47.693424884858	0
427	343393	47.698424884858	0
427	343622	47.703424884858	0
427	344365	47.712875020552	0
427	344366	47.717875020552	0
427	345484	47.72843837129	0
427	346087	47.73343837129	0
427	346585	47.73843837129	0
427	346586	47.74343837129	0
427	347420	47.756228170918	0
427	348025	47.761228170918	0
427	348026	47.766228170918	0
427	348548	47.798449216787	0
427	348549	47.803449216787	0
427	348884	48.505	1
427	351538	48.51	52
427	353576	48.515	0
427	356000	48.52	0
427	357143	48.525	0
427	359213	48.53	0
427	360382	48.535	0
427	361972	48.54	0
427	363939	48.545	0
427	365210	48.55	0
427	366628	48.555	0
427	367986	48.56	0
427	369482	48.565	0
427	371300	48.57	0
427	372565	48.575	0
427	373943	48.58	0
427	375088	48.585	0
427	378096	48.597263093936	0
427	379247	48.602263093936	0
427	380166	48.607263093936	0
427	385033	48.623774914414	0
427	386181	48.628774914414	0
427	387481	48.633774914414	0
427	388653	48.638774914414	0
427	390752	48.646699445882	0
427	391545	48.651699445882	0
427	394994	48.667159504003	0
427	395856	48.672159504003	0
427	404940	48.709893801235	0
427	406170	48.714893801235	0
427	408253	48.719893801235	0
427	409729	48.724893801235	0
427	411379	48.729893801235	0
427	412458	48.734893801235	0
427	413949	48.739893801235	0
427	415477	48.744893801235	0
427	416749	48.749893801235	0
427	418176	48.755337911758	0
427	419699	48.760337911758	0
427	421476	48.766516973948	0
427	422743	48.771516973948	0
427	424311	48.776516973948	0
427	425993	48.781516973948	0
427	427586	48.786961231587	0
427	428479	48.791961231587	0
427	429413	48.79795098101	0
427	430541	48.80295098101	0
427	431649	48.808857404707	0
427	432907	48.813857404707	0
427	434333	48.818857404707	0
427	435633	48.823857404707	0
427	437189	48.828857404707	0
427	437967	48.833857404707	0
427	439527	48.840423582535	0
427	440743	48.845423582535	0
427	442502	48.851788548487	0
427	443282	48.856788548487	0
427	444481	48.865501520351	0
427	444981	48.870501520351	0
427	446543	48.878746517143	0
427	447669	48.883746517143	0
427	448580	48.888746517143	0
427	449968	48.893746517143	0
427	450715	48.898746517143	0
427	451886	48.905166198936	0
427	452681	48.910166198936	0
427	453529	48.915166198936	0
427	454899	48.920166198936	0
427	455568	48.925166198936	0
427	456532	48.930166198936	0
427	457527	48.935166198936	0
427	458785	48.940166198936	0
427	459810	48.945166198936	0
427	460359	48.950166198936	0
427	462882	48.965417291786	0
427	463643	48.970417291786	0
427	464369	48.975417291786	0
427	465006	48.984757823699	0
427	465539	48.989757823699	0
427	466724	48.99549914768	0
427	467585	49.00049914768	0
427	468017	49.00549914768	0
427	468024	49.01049914768	0
427	469126	49.017345111158	0
427	469776	49.022345111158	0
427	470317	49.02850045026	0
427	470720	49.03350045026	0
427	470721	49.03850045026	0
427	471246	49.050569844661	0
427	471247	49.055569844661	0
427	471284	49.505	1
427	471800	49.51	51
427	473617	49.515	0
427	475726	49.52	0
427	478183	49.529303709679	0
427	479301	49.534303709679	0
427	480568	49.539303709679	0
427	482262	49.544303709679	0
427	483467	49.549303709679	0
427	484966	49.554303709679	0
427	486361	49.559303709679	0
427	487574	49.564303709679	0
427	488780	49.569303709679	0
427	490338	49.574485965248	0
427	491485	49.579485965248	0
427	492664	49.584485965248	0
427	494161	49.589485965248	0
427	495473	49.595751913336	0
427	496608	49.600751913336	0
427	497536	49.605751913336	0
427	498562	49.610751913336	0
427	501063	49.619230430041	0
427	502207	49.624230430041	0
427	503370	49.629230430041	0
427	505543	49.638020479747	0
427	506609	49.643020479747	0
427	507876	49.648020479747	0
427	509239	49.653020479747	0
427	510690	49.65820236532	0
427	511609	49.66320236532	0
427	513702	49.672844511396	0
427	514985	49.677844511396	0
427	516348	49.682844511396	0
427	518286	49.691627589233	0
427	519567	49.696627589233	0
427	520940	49.701627589233	0
427	524827	49.717486722221	0
427	526017	49.722486722221	0
427	527394	49.727486722221	0
427	528785	49.732486722221	0
427	529906	49.737486722221	0
427	534637	49.758360793767	0
427	535489	49.763360793767	0
427	537348	49.7702265437	0
427	538137	49.7752265437	0
427	539070	49.7802265437	0
427	540430	49.7852265437	0
427	541565	49.7902265437	0
427	543081	49.7952265437	0
427	544092	49.8002265437	0
427	545131	49.8052265437	0
427	546394	49.812244972047	0
427	547583	49.817244972047	0
427	548959	49.822244972047	0
427	550275	49.828211026033	0
427	551324	49.833211026033	0
427	552330	49.838211026033	0
427	553462	49.843211026033	0
427	554360	49.848211026033	0
427	555896	49.853211026033	0
427	556837	49.858211026033	0
427	557842	49.863211026033	0
427	558502	49.868211026033	0
427	559596	49.873211026033	0
427	561062	49.878211026033	0
427	561458	49.883211026033	0
427	562517	49.888276980435	0
427	563277	49.893276980435	0
427	563801	49.898276980435	0
427	565030	49.903276980435	0
427	565909	49.908276980435	0
427	567747	49.920855258802	0
427	568411	49.925855258802	0
427	569196	49.930855258802	0
427	570155	49.935855258802	0
427	571037	49.940855258802	0
427	571578	49.945855258802	0
427	572381	49.950855258802	0
427	573154	49.955855258802	0
427	573584	49.960855258802	0
427	573698	49.965855258802	0
427	574116	49.972209688338	0
427	574753	49.977209688338	0
427	575272	49.982209688338	0
427	575680	49.987209688338	0
427	575794	49.992209688338	0
427	577480	50.003111280311	0
427	577594	50.008111280311	0
427	578010	50.013391923534	0
427	578011	50.018391923534	0
427	578586	50.505	1
427	578706	50.51	0
427	581038	50.515985881409	51
427	582983	50.520985881409	0
427	584915	50.525985881409	0
427	586203	50.530985881409	0
427	587239	50.535985881409	0
427	588569	50.540985881409	0
427	589987	50.545985881409	0
427	591189	50.550985881409	0
427	592823	50.555985881409	0
427	594728	50.560985881409	0
427	595637	50.565985881409	0
427	596809	50.570985881409	0
427	598070	50.575985881409	0
427	599760	50.58186439447	0
427	601164	50.58686439447	0
427	602092	50.59186439447	0
427	603372	50.59686439447	0
427	604395	50.60186439447	0
427	605824	50.60686439447	0
427	606892	50.61186439447	0
427	609918	50.623992437485	0
427	611284	50.628992437485	0
427	613331	50.637267964726	0
427	614691	50.642267964726	0
427	618924	50.658746782682	0
427	620257	50.663746782682	0
427	624046	50.679561209135	0
427	625211	50.684561209135	0
427	626022	50.689561209135	0
427	628896	50.701799764174	0
427	630250	50.706799764174	0
427	631722	50.712801358566	0
427	632741	50.717801358566	0
427	634017	50.722854374607	0
427	635091	50.727854374607	0
427	636240	50.732854374607	0
427	640653	50.751146369929	0
427	641728	50.756146369929	0
427	642520	50.761146369929	0
427	643870	50.766146369929	0
427	645126	50.771146369929	0
427	646157	50.776146369929	0
427	648358	50.787382306596	0
427	649662	50.792382306596	0
427	650816	50.797382306596	0
427	651723	50.802382306596	0
427	652361	50.807382306596	0
427	653712	50.812718224743	0
427	654611	50.817718224743	0
427	658707	50.840379349507	0
427	658836	50.845379349507	0
427	665452	50.877944419188	0
427	666469	50.882944419188	0
427	667543	50.887944419188	0
427	668071	50.892944419188	0
427	669095	50.897944419188	0
427	670366	50.905831505374	0
427	671436	50.910831505374	0
427	672784	50.915831505374	0
427	673992	50.920831505374	0
427	675009	50.925831505374	0
427	675421	50.930831505374	0
427	676237	50.935831505374	0
427	677282	50.940831505374	0
427	678381	50.947020056542	0
427	679131	50.952020056542	0
427	683087	50.973751764172	0
427	683756	50.978751764172	0
427	684299	50.983751764172	0
427	684866	50.988751764172	0
427	685576	50.993751764172	0
427	685983	50.999036820687	0
427	687097	51.004036820687	0
427	687647	51.009036820687	0
427	687650	51.014036820687	0
427	688860	51.023104422815	0
427	689649	51.028104422815	0
427	690488	51.033104422815	0
427	691142	51.038104422815	0
427	691888	51.043104422815	0
427	692572	51.05481644799	0
427	693513	51.05981644799	0
427	694167	51.06481644799	0
427	694704	51.06981644799	0
427	695132	51.07481644799	0
427	695135	51.07981644799	0
427	695249	51.08481644799	0
427	695693	51.090593232306	0
427	695694	51.095593232306	0
427	696275	51.505	1
427	696285	51.51	0
427	699117	51.517794765064	54
427	701357	51.522794765064	0
427	704175	51.528799299812	0
427	705602	51.533799299812	0
427	706820	51.538799299812	0
427	708048	51.543799299812	0
427	710105	51.548799299812	0
427	711555	51.553799299812	0
427	713204	51.560595102304	0
427	714280	51.565595102304	0
427	716950	51.574765936782	0
427	718348	51.579765936782	0
427	719324	51.584765936782	0
427	720503	51.589765936782	0
427	721684	51.594765936782	0
427	723933	51.60573677924	0
427	724906	51.61073677924	0
427	725884	51.61573677924	0
427	727401	51.621549540498	0
427	728584	51.626549540498	0
427	729629	51.631549540498	0
427	731856	51.641763927454	0
427	733256	51.646763927454	0
427	734572	51.651763927454	0
427	737015	51.660858912296	0
427	738305	51.665858912296	0
427	739603	51.670858912296	0
427	741082	51.675858912296	0
427	744290	51.691261558888	0
427	745378	51.696261558888	0
427	746868	51.701261558888	0
427	747693	51.706261558888	0
427	748677	51.711261558888	0
427	749711	51.716261558888	0
427	751285	51.722084364945	0
427	752872	51.727084364945	0
427	756356	51.744287701543	0
427	757027	51.749287701543	0
427	758412	51.754287701543	0
427	759643	51.759287701543	0
427	760953	51.764287701543	0
427	762187	51.769287701543	0
427	764438	51.779575295209	0
427	765935	51.784575295209	0
427	767248	51.789575295209	0
427	768178	51.794575295209	0
427	770197	51.803601292593	0
427	770944	51.808601292593	0
427	776588	51.840240578853	0
427	777785	51.845240578853	0
427	781471	51.865845280087	0
427	782447	51.870845280087	0
427	783646	51.875845280087	0
427	784592	51.880845280087	0
427	786767	51.891768597583	0
427	787798	51.896768597583	0
427	789490	51.905957143786	0
427	790676	51.910957143786	0
427	791923	51.91834162239	0
427	792891	51.92334162239	0
427	793984	51.92834162239	0
427	794907	51.93334162239	0
427	796503	51.943197400745	0
427	796513	51.948197400745	0
427	797867	51.955015479312	0
427	798766	51.960015479312	0
427	799337	51.965015479312	0
427	800276	51.970015479312	0
427	800838	51.975015479312	0
427	800852	51.980015479312	0
427	801778	51.985015479312	0
427	801951	51.990015479312	0
427	802617	51.996962792947	0
427	803377	52.001962792947	0
427	804310	52.006962792947	0
427	804311	52.011962792947	0
427	805408	52.021262795174	0
427	805409	52.026262795174	0
427	807233	52.046978606703	0
427	807239	52.051978606703	0
427	808404	52.063893930827	0
427	808845	52.068893930827	0
427	808846	52.073893930827	0
427	809379	52.08172232543	0
427	809380	52.08672232543	0
427	809408	52.505	1
427	809528	52.51	0
427	810881	52.516152585367	36
427	812956	52.521152585367	0
427	814907	52.526152585367	0
427	815744	52.531152585367	0
427	816355	52.536152585367	0
427	817295	52.541402323624	0
427	819103	52.546402323624	0
427	820361	52.551402323624	0
427	821769	52.556770341749	0
427	822437	52.561770341749	0
427	823244	52.566770341749	0
427	824767	52.573072026625	0
427	826360	52.578072026625	0
427	828117	52.583072026625	0
427	829320	52.588072026625	0
427	832835	52.603497290562	0
427	833746	52.608497290562	0
427	834900	52.613515500336	0
427	835662	52.618515500336	0
427	838342	52.632259778994	0
427	839650	52.637259778994	0
427	841217	52.642259778994	0
427	842033	52.647259778994	0
427	843542	52.658897315131	0
427	844964	52.663897315131	0
427	846278	52.668897315131	0
427	847943	52.674116978964	0
427	848880	52.679116978964	0
427	849634	52.684116978964	0
427	850678	52.690086794033	0
427	852099	52.695086794033	0
427	855319	52.713481474633	0
427	856336	52.718481474633	0
427	857543	52.723481474633	0
427	858328	52.728481474633	0
427	859183	52.733481474633	0
427	860126	52.738481474633	0
427	861370	52.743481474633	0
427	862272	52.748481474633	0
427	863799	52.753481474633	0
427	864575	52.758481474633	0
427	866037	52.763481474633	0
427	866936	52.768481474633	0
427	867600	52.773481474633	0
427	868908	52.779328765732	0
427	870499	52.784328765732	0
427	872055	52.793380991041	0
427	872792	52.798380991041	0
427	873649	52.803380991041	0
427	874993	52.811154942717	0
427	876372	52.816154942717	0
427	877057	52.821154942717	0
427	878167	52.827662750441	0
427	879600	52.832662750441	0
427	880326	52.837662750441	0
427	881681	52.842662750441	0
427	882667	52.847662750441	0
427	883606	52.852662750441	0
427	884229	52.857662750441	0
427	886085	52.869027822563	0
427	887512	52.874027822563	0
427	888161	52.879027822563	0
427	889017	52.885255943724	0
427	889723	52.890255943724	0
427	890993	52.899004810445	0
427	891532	52.904004810445	0
427	891919	52.909004810445	0
427	892689	52.917342033893	0
427	893448	52.922342033893	0
427	894669	52.928419847967	0
427	895349	52.933419847967	0
427	896224	52.938419847967	0
427	897664	52.949629011387	0
427	898428	52.954629011387	0
427	898798	52.959629011387	0
427	899219	52.966089429969	0
427	899767	52.971089429969	0
427	899768	52.976089429969	0
427	900300	52.987487284388	0
427	900301	52.992487284388	0
427	900536	53.505	1
427	900543	53.51	0
427	902672	53.519194105808	34
427	904828	53.524194105808	0
427	906265	53.529194105808	0
427	907586	53.534194105808	0
427	908711	53.539194105808	0
427	909924	53.544194105808	0
427	911566	53.549194105808	0
427	912716	53.554194105808	0
427	914923	53.564637398254	0
427	915852	53.569637398254	0
427	916920	53.575739700308	0
427	917687	53.580739700308	0
427	919560	53.58850854094	0