version 2
run AODVScenario_1f-11-20121115-23:54:24-3960
attr configname AODVScenario_1f
attr datetime 20121115-23:54:24
attr experiment AODVScenario_1f
attr inifile AODV.ini
attr iterationvars $numNodes=61
attr iterationvars2 "$numNodes=61, $repetition=0"
attr measurement $numNodes=61
attr network csma802154net
attr numNodes 61
attr processid 3960
attr repetition 0
attr replication #0
attr resultdir results
attr runnumber 11
attr seedset 11

vector 255  csma802154net.dataCentricNetworkMan  RREQPacketFrequency  ETV
vector 256  csma802154net.dataCentricNetworkMan  RERRPacketFrequency  ETV
vector 257  csma802154net.dataCentricNetworkMan  DiscoveryPacketFrequency  ETV
vector 258  csma802154net.dataCentricNetworkMan  RegisterPacketFrequency  ETV
vector 259  csma802154net.dataCentricNetworkMan  RReplyPacketFrequency  ETV
vector 260  csma802154net.dataCentricNetworkMan  AODVDataPacketFrequency  ETV
vector 267  csma802154net.dataCentricNetworkMan  pendingRegistrationVector  ETV
vector 266  csma802154net.dataCentricNetworkMan  pendingRREQVector  ETV
vector 264  csma802154net.dataCentricNetworkMan  PendingDataPacketsVector  ETV
vector 278  csma802154net.fixhost[10].udpApp  "End-to-end delay"  ETV
vector 252  csma802154net.dataCentricNetworkMan  dataPacketE2EDelay  ETV
vector 297  csma802154net.fixhost[29].udpApp  "End-to-end delay"  ETV
vector 276  csma802154net.fixhost[8].udpApp  "End-to-end delay"  ETV
vector 271  csma802154net.fixhost[3].udpApp  "End-to-end delay"  ETV
vector 277  csma802154net.fixhost[9].udpApp  "End-to-end delay"  ETV
vector 275  csma802154net.fixhost[7].udpApp  "End-to-end delay"  ETV
vector 279  csma802154net.fixhost[11].udpApp  "End-to-end delay"  ETV
vector 283  csma802154net.fixhost[15].udpApp  "End-to-end delay"  ETV
vector 274  csma802154net.fixhost[6].udpApp  "End-to-end delay"  ETV
vector 281  csma802154net.fixhost[13].udpApp  "End-to-end delay"  ETV
vector 282  csma802154net.fixhost[14].udpApp  "End-to-end delay"  ETV
252	253333	70.033476084704	0.033476084704
252	254136	70.044884105968	0.044884105968
252	256277	71.028004085403	0.028004085403
252	256602	71.0315561072	0.0315561072
252	256934	71.040796133452	0.040796133452
252	258437	72.015956054725	0.015956054725
252	259070	72.024484079003	0.024484079003
252	259740	72.032052110327	0.032052110327
252	260520	73.010276008104	0.010276008104
252	260834	73.014396023697	0.014396023697
252	261149	73.019156045331	0.019156045331
252	337802	670.024836084707	0.024836084707
252	338765	670.035604105971	0.035604105971
252	340377	671.020116052075	0.020116052075
252	341370	671.054524111823	0.054524111823
252	341699	671.057940085402	0.057940085402
252	343323	672.017556054725	0.017556054725
252	343963	672.044324079004	0.044324079004
252	344627	672.049724110327	0.049724110327
252	345406	673.008676008104	0.008676008104
252	345721	673.014076023697	0.014076023697
252	346036	673.018836045331	0.018836045331
252	422993	1270.024836084707	0.024836084707
252	423637	1270.03304410597	0.03304410597
252	425581	1271.025516085402	0.025516085402
252	426558	1271.0478041072	0.0478041072
252	426889	1271.051284133452	0.051284133452
252	428711	1272.018124054725	0.018124054725
252	429029	1272.020716079004	0.020716079004
252	429700	1272.036532110327	0.036532110327
252	430480	1273.016996008104	0.016996008104
252	430794	1273.021436023696	0.021436023696
252	431109	1273.02651604533	0.02651604533
252	507826	1870.026116084707	0.026116084707
252	508782	1870.03432410597	0.03432410597
252	510265	1871.020436052074	0.020436052074
252	511057	1871.028644085402	0.028644085402
252	511711	1871.057972111822	0.057972111822
252	513339	1872.018836054724	0.018836054724
252	514110	1872.048164079003	0.048164079003
252	514784	1872.075252110326	0.075252110326
252	515563	1873.009636008103	0.009636008103
252	515878	1873.014076023696	0.014076023696
252	516193	1873.01947604533	0.01947604533
252	593303	2470.029564084707	0.029564084707
252	593946	2470.053524105971	0.053524105971
252	595761	2471.019724052075	0.019724052075
252	596227	2471.026084085403	0.026084085403
252	596881	2471.057652111821	0.057652111821
252	598703	2472.017164054725	0.017164054725
252	599012	2472.018796079004	0.018796079004
252	599844	2472.046812084159	0.046812084159
252	600947	2473.008356008104	0.008356008104
252	601262	2473.013756023697	0.013756023697
252	601577	2473.017556045331	0.017556045331
252	678363	3070.027716084707	0.027716084707
252	679330	3070.058644105971	0.058644105971
252	680942	3071.015956052075	0.015956052075
252	681931	3071.047524085403	0.047524085403
252	682256	3071.054452111823	0.054452111823
252	684078	3072.019724054725	0.019724054725
252	684550	3072.031772079004	0.031772079004
252	685551	3072.049404110327	0.049404110327
252	686330	3073.009316008104	0.009316008104
252	686645	3073.014716023697	0.014716023697
252	686960	3073.019156045331	0.019156045331
252	763990	3670.026436084707	0.026436084707
252	764630	3670.033436105971	0.033436105971
252	766441	3671.018516052075	0.018516052075
252	767101	3671.027684085403	0.027684085403
252	767751	3671.035252111822	0.035252111822
252	769571	3672.020684054725	0.020684054725
252	770225	3672.029356079004	0.029356079004
252	770562	3672.035572110326	0.035572110326
252	771342	3673.012516008104	0.012516008104
252	771656	3673.015996023697	0.015996023697
252	771971	3673.020116045331	0.020116045331
252	848951	4270.031516105967	0.031516105967
252	849605	4270.039020084703	0.039020084703
252	851405	4271.018444052075	0.018444052075
252	852065	4271.026724085403	0.026724085403
252	852386	4271.028996111823	0.028996111823
252	853889	4272.017236054724	0.017236054724
252	854520	4272.022564079002	0.022564079002
252	855190	4272.033332110324	0.033332110324
252	855969	4273.006436008104	0.006436008104
252	856284	4273.010876023697	0.010876023697
252	856598	4273.014996045331	0.014996045331
252	933319	4870.036036084706	0.036036084706
252	934211	4870.046164105971	0.046164105971
252	936154	4871.022636085402	0.022636085402
252	937263	4871.066052052075	0.066052052075
252	937918	4871.075180111821	0.075180111821
252	939546	4872.020116054725	0.020116054725
252	940315	4872.048164079003	0.048164079003
252	940989	4872.076532110325	0.076532110325
252	941768	4873.008036008104	0.008036008104
252	942083	4873.012796023697	0.012796023697
252	942398	4873.016276045331	0.016276045331
252	1019417	5470.028356084706	0.028356084706
252	1020061	5470.036244105968	0.036244105968
252	1021875	5471.023564052075	0.023564052075
252	1022335	5471.025516085402	0.025516085402
252	1022990	5471.057724111822	0.057724111822
252	1024618	5472.018836054724	0.018836054724
252	1025597	5472.050332079002	0.050332079002
252	1025933	5472.056692110326	0.056692110326
252	1026712	5473.009956008103	0.009956008103
252	1027028	5473.015036023696	0.015036023696
252	1027343	5473.02011604533	0.02011604533
252	1104656	6070.033684105969	0.033684105969
252	1104977	6070.037172084707	0.037172084707
252	1106906	6071.023636052075	0.023636052075
252	1107241	6071.029924085401	0.029924085401
252	1107892	6071.053244111822	0.053244111822
252	1110027	6072.024236079004	0.024236079004
252	1110364	6072.034436107931	0.034436107931
252	1110700	6072.045596137365	0.045596137365
252	1111479	6073.008996008104	0.008996008104
252	1111794	6073.014076023697	0.014076023697
252	1112109	6073.018196045331	0.018196045331
252	1189205	6670.030276084706	0.030276084706
252	1189847	6670.05832410597	0.05832410597
252	1191330	6671.018516052074	0.018516052074
252	1192627	6671.061812111821	0.061812111821
252	1192952	6671.064340085401	0.064340085401
252	1194448	6672.016916054725	0.016916054725
252	1195084	6672.025764079004	0.025764079004
252	1195750	6672.031484110327	0.031484110327
252	1196529	6673.008356008103	0.008356008103
252	1196844	6673.013116023696	0.013116023696
252	1197159	6673.01755604533	0.01755604533
252	1274196	7270.032796105971	0.032796105971
252	1274851	7270.042292084707	0.042292084707
252	1276324	7271.019156052075	0.019156052075
252	1276983	7271.026404085403	0.026404085403
252	1277629	7271.033724111823	0.033724111823
252	1279129	7272.016596054725	0.016596054725
252	1280122	7272.030844110327	0.030844110327
252	1280436	7272.038740079004	0.038740079004
252	1281219	7273.008036008104	0.008036008104
252	1281534	7273.013436023697	0.013436023697
252	1281849	7273.016916045331	0.016916045331
255	481	1.005	1
255	488	1.01	0
255	1014	1.019306382242	80
255	2163	1.024306382242	42
255	3312	1.029306382242	21
255	4576	1.034306382242	41
255	5215	1.039306382242	18
255	6247	1.044306382242	73
255	6846	1.049306382242	36
255	7569	1.054306382242	25
255	7931	1.059306382242	24
255	8290	1.064306382242	35
255	8593	1.069306382242	22
255	8699	1.074306382242	10
255	8937	1.079306382242	21
255	9180	1.084306382242	24
255	9181	1.089306382242	0
255	9387	1.103335485791	16
255	9388	1.108335485791	0
255	9579	1.142296319405	13
255	9580	1.147296319405	0
255	14882	43.505	1
255	14892	43.51	0
255	15374	43.518225117544	8
255	15851	43.523225117544	0
255	16056	43.528225117544	0
255	16841	43.533442330446	0
255	17221	43.538442330446	0
255	17685	43.543442330446	0
255	18395	43.548442330446	0
255	18624	43.553442330446	0
255	18903	43.558442330446	0
255	19190	43.563442330446	0
255	19626	43.568442330446	0
255	20051	43.573442330446	0
255	20777	43.578442330446	0
255	21409	43.583442330446	0
255	21684	43.588442330446	0
255	22200	43.593442330446	0
255	22479	43.598442330446	0
255	22900	43.603442330446	0
255	23052	43.608442330446	0
255	23354	43.613442330446	0
255	23355	43.618442330446	0
255	23491	44.505	1
255	23656	44.51	8
255	24133	44.515	0
255	24593	44.52	0
255	25250	44.525	0
255	25885	44.53	0
255	26386	44.535	0
255	26748	44.54	0
255	27175	44.545	0
255	27730	44.550984634749	0
255	28236	44.555984634749	0
255	28679	44.560984634749	0
255	28917	44.565984634749	0
255	29306	44.570984634749	0
255	29664	44.575984634749	0
255	29966	44.580984634749	0
255	30405	44.585984634749	0
255	30863	44.590984634749	0
255	31307	44.595984634749	0
255	31387	44.600984634749	0
255	31981	44.631722570291	0
255	32278	44.636722570291	0
255	32565	44.654035470327	0
255	32566	44.659035470327	0
255	32839	44.684619490829	0
255	32840	44.689619490829	0
255	32979	45.505	1
255	33348	45.51	16
255	34185	45.515	0
255	34784	45.52	0
255	35455	45.525	0
255	35694	45.53	0
255	36495	45.535	0
255	36953	45.54	0
255	37542	45.545	0
255	38146	45.55	0
255	38785	45.555	0
255	39518	45.56	0
255	39834	45.565	0
255	40293	45.57	0
255	40664	45.575	0
255	41311	45.58	0
255	41831	45.585	0
255	42351	45.59	0
255	42791	45.595	0
255	43230	45.6	0
255	43534	45.605618376221	0
255	44118	45.610618376221	0
255	44413	45.615618376221	0
255	44844	45.620618376221	0
255	45237	45.625618376221	0
255	45749	45.630618376221	0
255	46205	45.641166379701	0
255	46637	45.646166379701	0
255	47456	45.6560000419	0
255	47824	45.6610000419	0
255	48478	45.6660000419	0
255	48916	45.6710000419	0
255	48921	45.6760000419	0
255	49062	45.683170381162	0
255	49065	45.688170381162	0
255	49668	45.696622153057	0
255	49967	45.701622153057	0
255	50257	45.706622153057	0
255	50552	45.713454155811	0
255	50553	45.718454155811	0
255	50689	46.505	1
255	51022	46.51	22
255	51987	46.515	0
255	52694	46.52	0
255	53472	46.525	0
255	54288	46.53	0
255	55055	46.535	0
255	55471	46.54	0
255	56263	46.545	0
255	56810	46.55	0
255	57580	46.555	0
255	58190	46.56	0
255	58983	46.565654959786	0
255	60196	46.570654959786	0
255	60967	46.575654959786	0
255	61362	46.580654959786	0
255	62109	46.585654959786	0
255	62339	46.590654959786	0
255	62860	46.595654959786	0
255	63426	46.600654959786	0
255	64013	46.605654959786	0
255	64555	46.610654959786	0
255	65062	46.615654959786	0
255	66041	46.626534859115	0
255	66554	46.631534859115	0
255	67011	46.636534859115	0
255	67666	46.641534859115	0
255	68201	46.646534859115	0
255	68360	46.651534859115	0
255	68820	46.656534859115	0
255	69199	46.661534859115	0
255	69584	46.666534859115	0
255	69870	46.671534859115	0
255	70305	46.678338413797	0
255	70307	46.683338413797	0
255	70841	46.692534534601	0
255	71428	46.697534534601	0
255	71964	46.702534534601	0
255	72267	46.707534534601	0
255	72567	46.723762847455	0
255	72568	46.728762847455	0
255	72873	46.764257643465	0
255	72874	46.769257643465	0
255	73010	47.505	1
255	73229	47.51	17
255	73856	47.515	0
255	74591	47.52	0
255	75421	47.525	0
255	76061	47.53	0
255	76759	47.535	0
255	77152	47.54	0
255	77829	47.545	0
255	78227	47.55	0
255	78834	47.555	0
255	79612	47.56	0
255	80156	47.565	0
255	80795	47.57	0
255	81097	47.575	0
255	81730	47.583011009137	0
255	82384	47.588011009137	0
255	82625	47.593011009137	0
255	82918	47.598011009137	0
255	83488	47.606475759316	0
255	83792	47.611475759316	0
255	84011	47.616475759316	0
255	84310	47.621475759316	0
255	84924	47.62745848413	0
255	85224	47.63245848413	0
255	85650	47.637794913216	0
255	86026	47.642794913216	0
255	86332	47.647794913216	0
255	86642	47.652794913216	0
255	87182	47.657794913216	0
255	87712	47.662794913216	0
255	88016	47.667794913216	0
255	89013	47.685707183644	0
255	89248	47.690707183644	0
255	89249	47.695707183644	0
255	89553	47.740996316567	0
255	89554	47.745996316567	0
255	89690	48.505	1
255	90034	48.51	22
255	90978	48.515	0
255	91937	48.52	0
255	92565	48.525	0
255	93161	48.53	0
255	93388	48.535	0
255	93936	48.54	0
255	94436	48.545	0
255	94985	48.55	0
255	95730	48.555	0
255	96376	48.56	0
255	96987	48.565	0
255	97923	48.573359325649	0
255	98546	48.578359325649	0
255	99020	48.583359325649	0
255	99575	48.588359325649	0
255	100042	48.593359325649	0
255	100926	48.603748304127	0
255	101143	48.608748304127	0
255	101753	48.614118549368	0
255	102353	48.619118549368	0
255	102582	48.624118549368	0
255	103948	48.638148307842	0
255	104251	48.643148307842	0
255	104929	48.652553790352	0
255	105474	48.657553790352	0
255	105775	48.662553790352	0
255	106612	48.670271004971	0
255	107213	48.675271004971	0
255	107825	48.680271004971	0
255	108262	48.685271004971	0
255	108513	48.690271004971	0
255	109059	48.695280236662	0
255	109756	48.700280236662	0
255	110548	48.708534483732	0
255	110854	48.713534483732	0
255	111855	48.72520077697	0
255	112405	48.73020077697	0
255	112702	48.73520077697	0
255	113083	48.74020077697	0
255	113318	48.746618330598	0
255	113607	48.751618330598	0
255	114064	48.760058328804	0
255	114224	48.765058328804	0
255	114621	48.773574697805	0
255	114840	48.778574697805	0
255	115583	48.803247030107	0
255	115656	48.808247030107	0
255	116201	48.813247030107	0
255	116508	48.818247030107	0
255	116513	48.823247030107	0
255	116820	48.83041146121	0
255	116821	48.83541146121	0
255	116959	49.505	1
255	116969	49.51	0
255	117951	49.517166046771	18
255	118798	49.522166046771	0
255	119476	49.527166046771	0
255	120031	49.532166046771	0
255	120817	49.538904499823	0
255	121358	49.543904499823	0
255	121839	49.548904499823	0
255	122520	49.553904499823	0
255	122993	49.558904499823	0
255	123869	49.563904499823	0
255	124500	49.568904499823	0
255	125177	49.573904499823	0
255	126782	49.591113259584	0
255	127244	49.596113259584	0
255	128166	49.601490225023	0
255	129193	49.606490225023	0
255	129876	49.611490225023	0
255	130553	49.616490225023	0
255	130723	49.621490225023	0
255	131114	49.626490225023	0
255	131518	49.631490225023	0
255	132180	49.636490225023	0
255	132557	49.641490225023	0
255	132863	49.646490225023	0
255	133499	49.651490225023	0
255	135749	49.676260437145	0
255	136285	49.681260437145	0
255	136974	49.686260437145	0
255	138590	49.703811239513	0
255	139504	49.708811239513	0
255	140137	49.713811239513	0
255	140667	49.718811239513	0
255	140899	49.723811239513	0
255	141138	49.728811239513	0
255	141437	49.736220278294	0
255	141762	49.741220278294	0
255	141767	49.746220278294	0
255	142101	49.754586853439	0
255	142413	49.759586853439	0
255	142414	49.764586853439	0
255	142564	50.505	1
255	142980	50.51	19
255	144110	50.515	0
255	144626	50.52	0
255	145310	50.531642907622	0
255	145770	50.536642907622	0
255	146345	50.541642907622	0
255	147051	50.546642907622	0
255	147673	50.551642907622	0
255	148080	50.559227720658	0
255	148619	50.564227720658	0
255	149062	50.569227720658	0
255	150426	50.582019708469	0
255	150895	50.587019708469	0
255	151193	50.592019708469	0
255	152055	50.60034788445	0
255	152380	50.60534788445	0
255	152932	50.610635923484	0
255	153233	50.615635923484	0
255	154304	50.625727531289	0
255	154634	50.630727531289	0
255	155071	50.635727531289	0
255	156013	50.646216517729	0
255	156344	50.651216517729	0
255	156797	50.656216517729	0
255	158288	50.67129056933	0
255	159029	50.67629056933	0
255	159258	50.68129056933	0
255	160550	50.693959503964	0
255	161070	50.698959503964	0
255	161076	50.703959503964	0
255	161688	50.717723167315	0
255	161692	50.722723167315	0
255	162080	50.729740859305	0
255	162524	50.734740859305	0
255	162757	50.741124503808	0
255	162758	50.746124503808	0
255	163479	50.755449917594	0
255	163723	50.760449917594	0
255	163724	50.765449917594	0
255	164346	50.822153938496	0
255	164736	50.827153938496	0
255	164967	50.833443733765	0
255	164968	50.838443733765	0
255	165436	51.505	1
255	165757	51.51	16
255	166860	51.515	0
255	167714	51.52	0
255	168717	51.525	0
255	169019	51.53	0
255	169596	51.535	0
255	170137	51.54	0
255	170799	51.545	0
255	171342	51.55	0
255	171886	51.555731683575	0
255	172424	51.560731683575	0
255	172935	51.565731683575	0
255	173523	51.570731683575	0
255	174173	51.57639520146	0
255	174825	51.58139520146	0
255	175318	51.58639520146	0
255	175667	51.59139520146	0
255	176283	51.59639520146	0
255	176816	51.605924029803	0
255	177370	51.610924029803	0
255	177768	51.615924029803	0
255	178286	51.620924029803	0
255	178656	51.625924029803	0
255	178892	51.630924029803	0
255	179525	51.639011225766	0
255	179972	51.644011225766	0
255	180594	51.653184461092	0
255	180595	51.658184461092	0
255	181524	51.693506535325	0
255	182047	51.698506535325	0
255	182617	51.703506535325	0
255	182618	51.708506535325	0
255	182690	51.720216503598	0
255	182922	51.725216503598	0
255	182923	51.730216503598	0
255	183257	51.775893908883	0
255	183258	51.780893908883	0
255	183572	51.834957928259	0
255	183573	51.839957928259	0
255	183734	52.505	1
255	184192	52.51	19
255	185149	52.515	0
255	185810	52.52	0
255	186436	52.525	0
255	186740	52.53	0
255	187474	52.535766139648	0
255	188117	52.540766139648	0
255	188504	52.545766139648	0
255	189260	52.55142144194	0
255	189886	52.55642144194	0
255	190592	52.56142144194	0
255	190828	52.56642144194	0
255	191544	52.572622662561	0
255	192055	52.577622662561	0
255	192596	52.582622662561	0
255	192852	52.587622662561	0
255	193232	52.592622662561	0
255	193709	52.597622662561	0
255	194324	52.602622662561	0
255	194882	52.607622662561	0
255	195337	52.612622662561	0
255	196717	52.627109572178	0
255	197264	52.632109572178	0
255	198574	52.644429598784	0
255	198811	52.649429598784	0
255	199203	52.654429598784	0
255	199779	52.659429598784	0
255	200310	52.664429598784	0
255	200696	52.672593131727	0
255	201002	52.677593131727	0
255	201011	52.682593131727	0
255	201750	52.689512893521	0
255	202158	52.694512893521	0
255	202311	52.699512893521	0
255	202628	52.708112912389	0
255	202631	52.713112912389	0
255	203256	52.721629758102	0
255	203327	52.726629758102	0
255	203563	52.732896897935	0
255	203565	52.737896897935	0
255	203570	52.742896897935	0
255	203886	52.750308965083	0
255	203887	52.755308965083	0
255	204034	53.505	1
255	204044	53.51	0
255	205173	53.517239742439	20
255	206055	53.522239742439	0
255	206910	53.530400808028	0
255	207493	53.535400808028	0
255	207987	53.540400808028	0
255	208858	53.545400808028	0
255	209286	53.550400808028	0
255	209832	53.555400808028	0
255	210335	53.560400808028	0
255	210982	53.565400808028	0
255	211541	53.570400808028	0
255	212126	53.575400808028	0
255	212616	53.580400808028	0
255	213002	53.585400808028	0
255	213553	53.590400808028	0
255	214179	53.597697026562	0
255	214748	53.602697026562	0
255	215128	53.607697026562	0
255	215800	53.614155572053	0
255	216189	53.619155572053	0
255	217292	53.629884214082	0
255	217625	53.634884214082	0
255	218003	53.639884214082	0
255	218706	53.645851602729	0
255	219263	53.650851602729	0
255	219582	53.655851602729	0
255	220139	53.661556751845	0
255	220213	53.666556751845	0
255	220922	53.671640872983	0
255	221306	53.676640872983	0
255	221909	53.682811972813	0
255	221980	53.687811972813	0
255	222571	53.694204761362	0
255	222875	53.699204761362	0
255	223520	53.709449153675	0
255	223521	53.714449153675	0
255	224469	53.728755992096	0
255	224811	53.733755992096	0
255	224885	53.738755992096	0
255	225825	53.750890755651	0
255	225908	53.755890755651	0
255	225910	53.772159010176	0
255	225911	53.777159010176	0
255	226220	53.796611143143	0
255	226221	53.801611143143	0
255	226373	54.505	1
255	226450	54.51	0
255	227511	54.516889178375	20
255	228287	54.521889178375	0
255	229108	54.52782190241	0
255	229832	54.53282190241	0
255	230484	54.53782190241	0
255	230675	54.54282190241	0
255	231310	54.54782190241	0
255	231870	54.55282190241	0
255	232371	54.55782190241	0
255	232915	54.56282190241	0
255	233379	54.569036306805	0
255	234119	54.574036306805	0
255	234669	54.579036306805	0
255	234833	54.584036306805	0
255	235338	54.589569862129	0
255	235877	54.594569862129	0
255	236391	54.599569862129	0
255	237374	54.613050665139	0
255	237761	54.618050665139	0
255	238448	54.624683772125	0
255	238851	54.629683772125	0
255	239585	54.634683772125	0
255	240082	54.639683772125	0
255	240627	54.644683772125	0
255	241182	54.649683772125	0
255	241323	54.654683772125	0
255	241923	54.660231754633	0
255	242235	54.665231754633	0
255	243180	54.673910275378	0
255	243494	54.678910275378	0
255	243808	54.683910275378	0
255	244040	54.688910275378	0
255	244753	54.696997187779	0
255	245073	54.701997187779	0
255	245386	54.706997187779	0
255	245925	54.721872248013	0
255	246004	54.726872248013	0
255	247101	54.745854285832	0
255	247334	54.750854285832	0
255	247651	54.755897786378	0
255	248204	54.760897786378	0
255	248208	54.765897786378	0
255	248626	54.776198291662	0
255	248894	54.781198291662	0
255	249224	54.786198291662	0
255	251677	70.00501	0
255	252014	70.01001	0
255	252349	70.01501	0
255	252350	70.02001	0
255	252749	70.029596053493	0
255	253639	70.034596053493	0
255	253643	70.039596053493	0
255	254290	70.046404096622	0
255	254291	70.051404096622	0
255	254768	71.00501	0
255	255119	71.01001	0
255	255190	71.01501	0
255	255770	71.02035604126	0
255	256106	71.02535604126	0
255	256501	71.03035604126	0
255	256762	71.03535604126	0
255	256833	71.04035604126	0
255	257092	71.045796133452	0
255	257093	71.050796133452	0
255	257565	72.00501	0
255	257919	72.01001	0
255	258324	72.01501	0
255	258904	72.02001	0
255	259142	72.02501	0
255	259563	72.03001	0
255	259892	72.03501	0
255	259893	72.04001	0
255	260361	73.00501	0
255	260432	73.01001	0
255	260991	73.015276008104	0
255	261305	73.020276008104	0
255	261306	73.025276008104	0
255	336298	670.00501	0
255	336632	670.01001	0
255	336973	670.01501	0
255	337301	670.02001	0
255	337803	670.02501	0
255	338338	670.03001	0
255	338670	670.03501	0
255	338919	670.04001	0
255	338920	670.04501	0
255	339394	671.00501	0
255	339748	671.01001	0
255	339819	671.01501	0
255	340540	671.02099604126	0
255	340541	671.02599604126	0
255	341192	671.050004068823	0
255	341439	671.055004068823	0
255	341853	671.060004068823	0
255	341854	671.065004068823	0
255	342323	672.00501	0
255	342677	672.01001	0
255	343017	672.01501	0
255	343481	672.02001	0
255	343482	672.02501	0
255	344184	672.045844067809	0
255	344779	672.050844067809	0
255	344780	672.055844067809	0
255	345248	673.00501	0
255	345563	673.01001	0
255	345878	673.01501	0
255	346192	673.02001	0
255	346193	673.02501	0
255	421188	1270.00501	0
255	421589	1270.01001	0
255	422016	1270.01501	0
255	422256	1270.02001	0
255	423065	1270.025076068802	0
255	423472	1270.030076068802	0
255	423791	1270.035076068802	0
255	423792	1270.040076068802	0
255	424266	1271.00501	0
255	424623	1271.01001	0
255	425018	1271.01501	0
255	425409	1271.02001	0
255	425480	1271.02501	0
255	425735	1271.030516085402	0
255	425736	1271.035516085402	0
255	426715	1271.048364096385	0
255	427047	1271.053364096385	0
255	427048	1271.058364096385	0
255	427520	1272.00501	0
255	427941	1272.01001	0
255	428278	1272.01501	0
255	428936	1272.02001	0
255	429185	1272.02501	0
255	429519	1272.03001	0
255	429523	1272.03501	0
255	429852	1272.041532110327	0
255	429853	1272.046532110327	0
255	430237	1273.00501	0
255	430322	1273.01001	0
255	430948	1273.021996008104	0
255	431178	1273.026996008104	0
255	431266	1273.031996008104	0
255	506319	1870.00501	0
255	506656	1870.01001	0
255	506994	1870.01501	0
255	507322	1870.02001	0
255	507727	1870.02501	0
255	508356	1870.03001	0
255	508933	1870.03501	0
255	508937	1870.04001	0
255	509411	1871.00501	0
255	509765	1871.01001	0
255	509836	1871.01501	0
255	510334	1871.020676041259	0
255	510653	1871.025676041259	0
255	511214	1871.030676041259	0
255	511215	1871.035676041259	0
255	511869	1871.058852096385	0
255	511870	1871.063852096385	0
255	512233	1872.00501	0
255	512693	1872.01001	0
255	513027	1872.01501	0
255	513497	1872.02001	0
255	513498	1872.02501	0
255	514266	1872.048724067808	0
255	514270	1872.053724067808	0
255	514936	1872.076452094411	0
255	514937	1872.081452094411	0
255	515405	1873.00501	0
255	515632	1873.01001	0
255	516035	1873.01501	0
255	516262	1873.02001	0
255	516350	1873.02501	0
255	591342	2470.00501	0
255	591679	2470.01001	0
255	592017	2470.01501	0
255	592413	2470.02001	0
255	593136	2470.02501	0
255	593372	2470.03001	0
255	593448	2470.03501	0
255	593851	2470.053124096624	0
255	594100	2470.058124096624	0
255	594101	2470.063124096624	0
255	594575	2471.00501	0
255	594932	2471.01001	0
255	595260	2471.01501	0
255	595830	2471.02001	0
255	596062	2471.02501	0
255	596384	2471.031084085403	0
255	596385	2471.036084085403	0
255	596950	2471.057892096384	0
255	597040	2471.062892096384	0
255	597509	2472.00501	0
255	597866	2472.01001	0
255	598363	2472.01501	0
255	599168	2472.02001	0
255	599329	2472.02501	0
255	599330	2472.03001	0
255	600320	2472.051812084159	0
255	600321	2472.056812084159	0
255	600789	2473.00501	0
255	601104	2473.01001	0
255	601422	2473.01501	0
255	601733	2473.02001	0
255	601734	2473.02501	0
255	676633	3070.00501	0
255	677060	3070.01001	0
255	677131	3070.01501	0
255	677469	3070.020046038047	0
255	678196	3070.025046038047	0
255	678507	3070.030046038047	0
255	678508	3070.035046038047	0
255	679162	3070.054124080951	0
255	679399	3070.059124080951	0
255	679485	3070.064124080951	0
255	679962	3071.00501	0
255	680316	3071.01001	0
255	680778	3071.01501	0
255	681105	3071.02001	0
255	681106	3071.02501	0
255	681765	3071.046164068823	0
255	682085	3071.051164068823	0
255	682414	3071.056164068823	0
255	682415	3071.061164068823	0
255	682884	3072.00501	0
255	683241	3072.01001	0
255	683578	3072.01501	0
255	684153	3072.02001	0
255	684388	3072.02501	0
255	684706	3072.036772079004	0
255	684715	3072.041772079004	0
255	685703	3072.050284094412	0
255	685704	3072.055284094412	0
255	686172	3073.00501	0
255	686484	3073.01001	0
255	686714	3073.01501	0
255	687116	3073.02001	0
255	687117	3073.02501	0
255	762173	3670.00501	0
255	762507	3670.01001	0
255	762845	3670.01501	0
255	763237	3670.02001	0
255	763826	3670.02501	0
255	764462	3670.03001	0
255	764784	3670.03501	0
255	764785	3670.04001	0
255	765587	3671.00501	0
255	765938	3671.01001	0
255	766169	3671.01501	0
255	766604	3671.02001	0
255	766926	3671.02501	0
255	767325	3671.03001	0
255	767650	3671.03501	0
255	767909	3671.04001	0
255	767910	3671.04501	0
255	768379	3672.00501	0
255	768733	3672.01001	0
255	769070	3672.01501	0
255	769461	3672.02001	0
255	769796	3672.02501	0
255	770378	3672.03001	0
255	770452	3672.03501	0
255	770714	3672.040572110326	0
255	770715	3672.045572110326	0
255	771099	3673.00501	0
255	771187	3673.01001	0
255	771816	3673.017516008104	0
255	772127	3673.022516008104	0
255	772128	3673.027516008104	0
255	846959	4270.00501	0
255	847454	4270.01001	0
255	847792	4270.01501	0
255	848117	4270.02001	0
255	848452	4270.02501	0
255	848789	4270.03001	0
255	849175	4270.03501	0
255	849749	4270.04001	0
255	849750	4270.04501	0
255	850227	4271.00501	0
255	850581	4271.01001	0
255	850976	4271.01501	0
255	851636	4271.02001	0
255	851894	4271.02501	0
255	852544	4271.03001	0
255	852545	4271.03501	0
255	853014	4272.00501	0
255	853368	4272.01001	0
255	853708	4272.01501	0
255	854357	4272.02001	0
255	854676	4272.02501	0
255	854904	4272.03001	0
255	855342	4272.03501	0
255	855343	4272.04001	0
255	855814	4273.00501	0
255	856196	4273.01001	0
255	856599	4273.01501	0
255	856755	4273.02001	0
255	931750	4870.00501	0
255	932081	4870.01001	0
255	932082	4870.01501	0
255	932647	4870.028366038047	0
255	933082	4870.033366038047	0
255	933714	4870.038366038047	0
255	934046	4870.043366038047	0
255	934365	4870.048366038047	0
255	934366	4870.053366038047	0
255	934843	4871.00501	0
255	935194	4871.01001	0
255	935522	4871.01501	0
255	935983	4871.02001	0
255	936308	4871.02501	0
255	936309	4871.03001	0
255	937493	4871.071052052075	0
255	938076	4871.076052052075	0
255	938077	4871.081052052075	0
255	938546	4872.00501	0
255	938900	4872.01001	0
255	938971	4872.01501	0
255	939701	4872.020676041206	0
255	939705	4872.025676041206	0
255	940474	4872.049684067808	0
255	940475	4872.054684067808	0
255	941058	4872.07677209441	0
255	941142	4872.08177209441	0
255	941610	4873.00501	0
255	941925	4873.01001	0
255	942246	4873.01501	0
255	942554	4873.02001	0
255	942555	4873.02501	0
255	1017608	5470.00501	0
255	1017942	5470.01001	0
255	1018277	5470.01501	0
255	1018605	5470.02001	0
255	1018943	5470.02501	0
255	1019567	5470.03001	0
255	1019902	5470.03501	0
255	1020215	5470.04001	0
255	1020216	5470.04501	0
255	1020690	5471.00501	0
255	1021044	5471.01001	0
255	1021115	5471.01501	0
255	1021695	5471.02067604126	0
255	1022336	5471.02567604126	0
255	1022493	5471.03067604126	0
255	1022822	5471.055724096385	0
255	1023148	5471.060724096385	0
255	1023149	5471.065724096385	0
255	1023512	5472.00501	0
255	1023820	5472.01001	0
255	1024306	5472.01501	0
255	1024776	5472.02001	0
255	1024777	5472.02501	0
255	1025428	5472.047124067808	0
255	1025753	5472.052124067808	0
255	1026002	5472.057124067808	0
255	1026086	5472.062124067808	0
255	1026470	5473.00501	0
255	1026713	5473.01001	0
255	1026940	5473.01501	0
255	1027255	5473.020036023696	0
255	1027499	5473.025036023696	0