version 2
run AODVScenario_1f-56-20121121-12:00:01-4048
attr configname AODVScenario_1f
attr datetime 20121121-12:00:01
attr experiment AODVScenario_1f
attr inifile AODV.ini
attr iterationvars $numNodes=106
attr iterationvars2 "$numNodes=106, $repetition=0"
attr measurement $numNodes=106
attr network csma802154net
attr numNodes 106
attr processid 4048
attr repetition 0
attr replication #0
attr resultdir results
attr runnumber 56
attr seedset 56

vector 435  csma802154net.dataCentricNetworkMan  RREQPacketFrequency  ETV
vector 436  csma802154net.dataCentricNetworkMan  RERRPacketFrequency  ETV
vector 437  csma802154net.dataCentricNetworkMan  DiscoveryPacketFrequency  ETV
vector 438  csma802154net.dataCentricNetworkMan  RegisterPacketFrequency  ETV
vector 439  csma802154net.dataCentricNetworkMan  RReplyPacketFrequency  ETV
vector 440  csma802154net.dataCentricNetworkMan  AODVDataPacketFrequency  ETV
vector 447  csma802154net.dataCentricNetworkMan  pendingRegistrationVector  ETV
vector 446  csma802154net.dataCentricNetworkMan  pendingRREQVector  ETV
vector 444  csma802154net.dataCentricNetworkMan  PendingDataPacketsVector  ETV
vector 466  csma802154net.fixhost[18].udpApp  "End-to-end delay"  ETV
vector 432  csma802154net.dataCentricNetworkMan  dataPacketE2EDelay  ETV
vector 470  csma802154net.fixhost[22].udpApp  "End-to-end delay"  ETV
vector 460  csma802154net.fixhost[12].udpApp  "End-to-end delay"  ETV
vector 461  csma802154net.fixhost[13].udpApp  "End-to-end delay"  ETV
vector 462  csma802154net.fixhost[14].udpApp  "End-to-end delay"  ETV
vector 449  csma802154net.fixhost[1].udpApp  "End-to-end delay"  ETV
vector 452  csma802154net.fixhost[4].udpApp  "End-to-end delay"  ETV
vector 453  csma802154net.fixhost[5].udpApp  "End-to-end delay"  ETV
vector 459  csma802154net.fixhost[11].udpApp  "End-to-end delay"  ETV
vector 455  csma802154net.fixhost[7].udpApp  "End-to-end delay"  ETV
432	914191	70.016636036908	0.016636036908
432	915262	70.026156075539	0.026156075539
432	918201	71.023596067393	0.023596067393
432	920028	71.042324102369	0.042324102369
432	921094	71.063692116971	0.063692116971
432	925617	72.033436101388	0.033436101388
432	926673	72.039724125067	0.039724125067
432	927759	72.046692126778	0.046692126778
432	933600	73.036844118393	0.036844118393
432	934662	73.057612097239	0.057612097239
432	1065977	670.013436036909	0.013436036909
432	1067049	670.021996075539	0.021996075539
432	1070204	671.022316067392	0.022316067392
432	1071928	671.054164102369	0.054164102369
432	1073114	671.086340116971	0.086340116971
432	1076716	672.025796075288	0.025796075288
432	1079188	672.067460099289	0.067460099289
432	1080279	672.093588126779	0.093588126779
432	1084897	673.030876097239	0.030876097239
432	1086409	673.040364118393	0.040364118393
432	1218248	1270.014396036909	0.014396036909
432	1219320	1270.02199607554	0.02199607554
432	1222259	1271.020396067393	0.020396067393
432	1224094	1271.033684102369	0.033684102369
432	1225702	1271.06362011697	0.06362011697
432	1231317	1272.039724125067	0.039724125067
432	1232100	1272.060700126778	0.060700126778
432	1233907	1272.112116101387	0.112116101387
432	1239437	1273.029596097238	0.029596097238
432	1240513	1273.036204118393	0.036204118393
432	1371930	1870.015996036908	0.015996036908
432	1373002	1870.026156075539	0.026156075539
432	1375940	1871.021996067393	0.021996067393
432	1377759	1871.033116102369	0.033116102369
432	1379373	1871.059284116971	0.059284116971
432	1383079	1872.028996075287	0.028996075287
432	1385168	1872.056404099286	0.056404099286
432	1386258	1872.064612126777	0.064612126777
432	1390864	1873.028956097239	0.028956097239
432	1392385	1873.039724118392	0.039724118392
432	1523695	2470.012796036909	0.012796036909
432	1524767	2470.02103607554	0.02103607554
432	1527924	2471.020716067393	0.020716067393
432	1529536	2471.052244102369	0.052244102369
432	1530595	2471.05729211697	0.05729211697
432	1535636	2472.033364101388	0.033364101388
432	1536159	2472.035316125066	0.035316125066
432	1537245	2472.041644126778	0.041644126778
432	1541757	2473.030236097239	0.030236097239
432	1543390	2473.042604118392	0.042604118392
432	1674700	3070.013436036909	0.013436036909
432	1675772	3070.02423607554	0.02423607554
432	1679763	3071.029596117103	0.029596117103
432	1680854	3071.036812102368	0.036812102368
432	1681390	3071.04036414831	0.04036414831
432	1684883	3072.034116075288	0.034116075288
432	1687010	3072.049324126779	0.049324126779
432	1688078	3072.058500099289	0.058500099289
432	1692814	3073.033116097238	0.033116097238
432	1694988	3073.060524118392	0.060524118392
432	1826404	3670.012796036909	0.012796036909
432	1827476	3670.02103607554	0.02103607554
432	1830931	3671.021604067392	0.021604067392
432	1832560	3671.03048411697	0.03048411697
432	1833103	3671.034004102368	0.034004102368
432	1837630	3672.036916126779	0.036916126779
432	1838719	3672.062412101388	0.062412101388
432	1839777	3672.072932125067	0.072932125067
432	1844793	3673.030236097239	0.030236097239
432	1845865	3673.037804118393	0.037804118393
432	1977175	4270.014396036909	0.014396036909
432	1978247	4270.022636075539	0.022636075539
432	1981657	4271.021036067391	0.021036067391
432	1983276	4271.031196102367	0.031196102367
432	1983812	4271.037772116968	0.037772116968
432	1988571	4272.036916125066	0.036916125066
432	1989095	4272.042892101386	0.042892101386
432	1990711	4272.063404126778	0.063404126778
432	1995879	4273.032476097233	0.032476097233
432	1997113	4273.06141211839	0.06141211839
432	2128423	4870.010876036909	0.010876036909
432	2129495	4870.02423607554	0.02423607554
432	2132437	4871.021676067393	0.021676067393
432	2134035	4871.031764116971	0.031764116971
432	2135117	4871.038732102369	0.038732102369
432	2138589	4872.030916075288	0.030916075288
432	2140670	4872.041684099289	0.041684099289
432	2141756	4872.048684126779	0.048684126779
432	2146268	4873.030876097239	0.030876097239
432	2147901	4873.042284118393	0.042284118393
432	2279317	5470.011196036909	0.011196036909
432	2280389	5470.02071607554	0.02071607554
432	2283328	5471.020716067393	0.020716067393
432	2285457	5471.035604102369	0.035604102369
432	2286778	5471.062412116971	0.062412116971
432	2290380	5472.027396075288	0.027396075288
432	2292082	5472.060492099286	0.060492099286
432	2293685	5472.072540126777	0.072540126777
432	2298479	5473.033716118393	0.033716118393
432	2300623	5473.062980097238	0.062980097238
432	2431938	6070.012796036909	0.012796036909
432	2433010	6070.021676075539	0.021676075539
432	2435948	6071.019436067392	0.019436067392
432	2438087	6071.032972102368	0.032972102368
432	2438617	6071.03489211697	0.03489211697
432	2443382	6072.032404101388	0.032404101388
432	2445208	6072.064292125067	0.064292125067
432	2446299	6072.083812126778	0.083812126778
432	2450923	6073.033436097238	0.033436097238
432	2452443	6073.043244118392	0.043244118392
432	2584283	6670.015036036908	0.015036036908
432	2585355	6670.026476075539	0.026476075539
432	2588293	6671.020716067393	0.020716067393
432	2590139	6671.034644102369	0.034644102369
432	2591225	6671.048444098601	0.048444098601
432	2595863	6672.026044075287	0.026044075287
432	2597566	6672.035284099288	0.035284099288
432	2599185	6672.060204126778	0.060204126778
432	2604374	6673.033364097238	0.033364097238
432	2605608	6673.065892118389	0.065892118389
432	2737024	7270.011196036909	0.011196036909
432	2738096	7270.02007607554	0.02007607554
432	2741555	7271.022564067392	0.022564067392
432	2743158	7271.052884102369	0.052884102369
432	2744763	7271.068380148311	0.068380148311
432	2748365	7272.025796075288	0.025796075288
432	2751099	7272.063692099288	0.063692099288
432	2751628	7272.065572126778	0.065572126778
432	2756694	7273.028956097239	0.028956097239
432	2758048	7273.060204118393	0.060204118393
435	1127	1.005	27
435	1864	1.01	63
435	3437	1.015	90
435	5348	1.02	60
435	7758	1.025	82
435	10179	1.03	67
435	12543	1.035	94
435	15141	1.04	79
435	17097	1.045	67
435	18462	1.05	90
435	20420	1.055	101
435	21557	1.06	49
435	22534	1.065	64
435	23525	1.07	91
435	24916	1.075	74
435	26164	1.08	92
435	26940	1.085	48
435	27727	1.09	67
435	28069	1.095	25
435	28799	1.1	82
435	28915	1.105	0
435	29191	1.110120566896	35
435	29598	1.115120566896	40
435	30000	1.120120566896	39
435	30389	1.125120566896	28
435	31344	1.130120566896	52
435	32249	1.135120566896	71
435	33479	1.140120566896	69
435	33673	1.145120566896	18
435	34169	1.150120566896	56
435	34555	1.155120566896	34
435	35138	1.160120566896	53
435	35784	1.165120566896	63
435	36167	1.170120566896	34
435	36168	1.175120566896	0
435	36629	1.200927163998	49
435	36630	1.205927163998	0
435	45853	43.505	1
435	46388	43.51	40
435	48752	43.515	0
435	50062	43.52	0
435	51350	43.52616912016	0
435	52365	43.53116912016	0
435	53237	43.53616912016	0
435	54805	43.54116912016	0
435	56788	43.549842183394	0
435	57408	43.554842183394	0
435	59117	43.562540582754	0
435	60140	43.567540582754	0
435	61245	43.572540582754	0
435	62232	43.577540582754	0
435	63361	43.582540582754	0
435	64284	43.587540582754	0
435	65521	43.592540582754	0
435	67019	43.597540582754	0
435	67699	43.602540582754	0
435	69030	43.607540582754	0
435	72206	43.623138049985	0
435	73581	43.628138049985	0
435	74117	43.633138049985	0
435	75656	43.638138049985	0
435	76667	43.643138049985	0
435	77551	43.648138049985	0
435	79877	43.660086596252	0
435	81017	43.665086596252	0
435	81902	43.670086596252	0
435	84603	43.680526368699	0
435	85615	43.685526368699	0
435	89175	43.701295714579	0
435	90178	43.706295714579	0
435	90818	43.711295714579	0
435	91455	43.716295714579	0
435	92730	43.721295714579	0
435	94173	43.726295714579	0
435	95144	43.731295714579	0
435	97206	43.745020254439	0
435	98206	43.750020254439	0
435	100222	43.758920019054	0
435	101228	43.763920019054	0
435	103012	43.7715460308	0
435	103855	43.7765460308	0
435	106180	43.788732277796	0
435	106832	43.793732277796	0
435	107837	43.798732277796	0
435	108107	43.803732277796	0
435	109296	43.809926441331	0
435	110197	43.814926441331	0
435	111703	43.821653864315	0
435	112500	43.826653864315	0
435	113044	43.831653864315	0
435	114055	43.836653864315	0
435	115177	43.841653864315	0
435	115824	43.846653864315	0
435	117437	43.857403914309	0
435	117836	43.862403914309	0
435	118562	43.867403914309	0
435	119212	43.872403914309	0
435	119218	43.877403914309	0
435	120244	43.885380039838	0
435	120611	43.890380039838	0
435	121255	43.895575763674	0
435	121765	43.900575763674	0
435	122381	43.905575763674	0
435	122900	43.910575763674	0
435	123413	43.915575763674	0
435	124200	43.920575763674	0
435	124342	43.925575763674	0
435	125551	43.963073757117	0
435	126046	43.968073757117	0
435	126162	43.973073757117	0
435	126557	43.978507341782	0
435	126559	43.983507341782	0
435	127194	43.993870470761	0
435	127591	43.998870470761	0
435	128321	44.003870470761	0
435	128322	44.008870470761	0
435	128844	44.047171370785	0
435	128845	44.052171370785	0
435	128858	44.505	1
435	129301	44.51	31
435	130884	44.515	0
435	132425	44.52	0
435	133453	44.525	0
435	134569	44.53	0
435	135211	44.535	0
435	135986	44.54	0
435	136663	44.545	0
435	137512	44.55	0
435	138428	44.555323189595	0
435	139542	44.560323189595	0
435	140201	44.565323189595	0
435	141678	44.570832051617	0
435	142882	44.575832051617	0
435	143924	44.580832051617	0
435	144560	44.585832051617	0
435	145329	44.590832051617	0
435	148904	44.60911443489	0
435	149773	44.61411443489	0
435	150640	44.61911443489	0
435	152199	44.627255130086	0
435	153376	44.632255130086	0
435	156109	44.651272068089	0
435	157264	44.656272068089	0
435	158409	44.661272068089	0
435	160012	44.670706872892	0
435	160927	44.675706872892	0
435	161687	44.680706872892	0
435	163272	44.686626503313	0
435	164113	44.691626503313	0
435	165150	44.70077121019	0
435	165958	44.70577121019	0
435	167056	44.71077121019	0
435	167556	44.71577121019	0
435	169070	44.72444108367	0
435	169914	44.72944108367	0
435	172444	44.747112536447	0
435	172952	44.752112536447	0
435	173822	44.757112536447	0
435	175199	44.762112536447	0
435	175949	44.767112536447	0
435	177159	44.773110591051	0
435	177554	44.778110591051	0
435	178695	44.789722143312	0
435	179101	44.794722143312	0
435	179640	44.799722143312	0
435	181365	44.808962980834	0
435	182373	44.813962980834	0
435	183102	44.818962980834	0
435	184177	44.828548757938	0
435	184570	44.833548757938	0
435	185084	44.838548757938	0
435	185599	44.843548757938	0
435	185991	44.848548757938	0
435	186240	44.853548757938	0
435	187171	44.859787202382	0
435	187172	44.864787202382	0
435	187674	44.875071083919	0
435	187675	44.880071083919	0
435	188209	44.897415321353	0
435	188210	44.902415321353	0
435	188852	44.922051233683	0
435	189255	44.927051233683	0
435	189256	44.932051233683	0
435	189763	44.974079328907	0
435	189764	44.979079328907	0
435	190105	45.505	1
435	192819	45.51	56
435	195046	45.515	0
435	196578	45.52	0
435	198660	45.526444027707	0
435	200031	45.531444027707	0
435	201462	45.536444027707	0
435	203464	45.541444027707	0
435	205015	45.546444027707	0
435	206419	45.551444027707	0
435	208507	45.560821086487	0
435	209787	45.565821086487	0
435	211483	45.570821086487	0
435	213291	45.576831239823	0
435	214907	45.581831239823	0
435	216223	45.586831239823	0
435	218063	45.591831239823	0
435	219338	45.596831239823	0
435	220402	45.601831239823	0
435	222941	45.611195537094	0
435	224092	45.616195537094	0
435	226553	45.624759404227	0
435	227969	45.629759404227	0
435	229224	45.634759404227	0
435	232520	45.647250836469	0
435	233458	45.652250836469	0
435	238656	45.674273689974	0
435	240196	45.679273689974	0
435	241233	45.684273689974	0
435	242345	45.689273689974	0
435	244284	45.697255895623	0
435	245534	45.702255895623	0
435	247408	45.710033152152	0
435	248702	45.715033152152	0
435	250193	45.720033152152	0
435	251638	45.725033152152	0
435	252679	45.730033152152	0
435	254365	45.735033152152	0
435	255582	45.740033152152	0
435	256655	45.745033152152	0
435	257865	45.750033152152	0
435	259388	45.755033152152	0
435	260948	45.760033152152	0
435	262167	45.765033152152	0
435	263567	45.770033152152	0
435	265096	45.775033152152	0
435	267743	45.786581610118	0
435	268755	45.791581610118	0
435	271446	45.805603164262	0
435	272594	45.810603164262	0
435	273865	45.815603164262	0
435	274903	45.820603164262	0
435	276082	45.828755528493	0
435	277291	45.833755528493	0
435	278457	45.838755528493	0
435	280759	45.849125553821	0
435	282169	45.854125553821	0
435	283430	45.859125553821	0
435	284458	45.864125553821	0
435	285975	45.870316534455	0
435	287088	45.875316534455	0
435	291989	45.899992437175	0
435	293364	45.904992437175	0
435	294389	45.909992437175	0
435	295404	45.914992437175	0
435	296349	45.919992437175	0
435	297252	45.924992437175	0
435	298276	45.929992437175	0
435	299519	45.934992437175	0
435	300281	45.939992437175	0
435	301683	45.946417349983	0
435	302184	45.951417349983	0
435	303538	45.958937000219	0
435	304315	45.963937000219	0
435	306104	45.973779175329	0
435	307147	45.978779175329	0
435	308189	45.983779175329	0
435	309252	45.988779175329	0
435	309864	45.993779175329	0
435	310021	45.998779175329	0
435	311000	46.006707198664	0
435	311809	46.011707198664	0
435	311814	46.016707198664	0
435	312345	46.021707198664	0
435	312461	46.026707198664	0
435	312894	46.032566981605	0
435	313421	46.037566981605	0
435	313970	46.052399725099	0
435	314517	46.057399725099	0
435	314518	46.062399725099	0
435	315607	46.078034445168	0
435	316258	46.083034445168	0
435	316652	46.505	1
435	317170	46.51	38
435	318929	46.515	0
435	320418	46.52	0
435	322097	46.525	0
435	323365	46.53	0
435	324550	46.535	0
435	326188	46.54	0
435	326957	46.545	0
435	328379	46.550541269628	0
435	329736	46.555541269628	0
435	331174	46.563787099185	0
435	332207	46.568787099185	0
435	333443	46.573787099185	0
435	334745	46.580550236133	0
435	336035	46.585550236133	0
435	336967	46.590550236133	0
435	337744	46.595550236133	0
435	338756	46.600550236133	0
435	340633	46.607693900236	0
435	341797	46.612693900236	0
435	342714	46.617693900236	0
435	343874	46.622693900236	0
435	344944	46.627693900236	0
435	346062	46.632693900236	0
435	347168	46.639410885248	0
435	348395	46.644410885248	0
435	349551	46.649410885248	0
435	349925	46.654410885248	0
435	350584	46.659410885248	0
435	352158	46.666578912604	0
435	353176	46.671578912604	0
435	353928	46.676578912604	0
435	355640	46.683828082349	0
435	356284	46.688828082349	0
435	357184	46.693828082349	0
435	358097	46.698828082349	0
435	359162	46.703828082349	0
435	359960	46.708828082349	0
435	363266	46.726396923932	0
435	363964	46.731396923932	0
435	364997	46.736396923932	0
435	366252	46.741396923932	0
435	367068	46.746396923932	0
435	367948	46.751396923932	0
435	368973	46.756396923932	0
435	369786	46.761396923932	0
435	370767	46.766396923932	0
435	371843	46.772370176671	0
435	372725	46.777370176671	0
435	373235	46.782370176671	0
435	374395	46.789206089384	0
435	375439	46.794206089384	0
435	376364	46.799206089384	0
435	377026	46.804206089384	0
435	377948	46.809822966313	0
435	378331	46.814822966313	0
435	379462	46.819822966313	0
435	380661	46.825600417344	0
435	381191	46.830600417344	0
435	382235	46.836194781508	0
435	382605	46.841194781508	0
435	384164	46.850887674106	0
435	384416	46.855887674106	0
435	385716	46.867000541863	0
435	386380	46.872000541863	0
435	387154	46.877000541863	0
435	387564	46.892315707874	0
435	387566	46.897315707874	0
435	389177	46.964511492919	0
435	389178	46.969511492919	0
435	389407	47.505	1
435	390146	47.51	22
435	392002	47.515	0
435	393613	47.52	0
435	394650	47.525	0
435	395351	47.53	0
435	396819	47.535	0
435	398055	47.54	0
435	399464	47.546661486739	0
435	399834	47.551661486739	0
435	400611	47.556661486739	0
435	401552	47.561661486739	0
435	402801	47.566661486739	0
435	404102	47.571661486739	0
435	405150	47.576661486739	0
435	406158	47.581661486739	0
435	407396	47.587293270021	0
435	408161	47.592293270021	0
435	409299	47.597293270021	0
435	410377	47.602293270021	0
435	411499	47.607293270021	0
435	412630	47.612293270021	0
435	413596	47.617293270021	0
435	414362	47.622293270021	0
435	415505	47.628121096601	0
435	416321	47.633121096601	0
435	417814	47.640393121974	0
435	418670	47.645393121974	0
435	419652	47.653213591057	0
435	420169	47.658213591057	0
435	420679	47.663213591057	0
435	421677	47.669499077422	0
435	422189	47.674499077422	0
435	423106	47.679499077422	0
435	423842	47.684499077422	0
435	425092	47.693123591523	0
435	425707	47.698123591523	0
435	426357	47.703123591523	0
435	426853	47.708123591523	0
435	427603	47.713123591523	0
435	428253	47.730501876835	0
435	428994	47.735501876835	0
435	429618	47.750093492643	0
435	429619	47.755093492643	0
435	430116	47.760351295375	0
435	430120	47.765351295375	0
435	430664	47.772844910858	0
435	430665	47.777844910858	0
435	431168	47.825561315946	0
435	431169	47.830561315946	0
435	431817	47.891441327488	0
435	432212	47.896441327488	0
435	432441	48.505	1
435	433360	48.51	41
435	435603	48.515	0
435	437542	48.52	0
435	438819	48.525	0
435	440318	48.53	0
435	441876	48.535	0
435	442956	48.54	0
435	444391	48.545	0
435	445720	48.55	0
435	447701	48.558704576686	0
435	448868	48.563704576686	0
435	450080	48.568704576686	0
435	451544	48.573704576686	0
435	454110	48.582974428809	0
435	455340	48.587974428809	0
435	459704	48.609763711271	0
435	461024	48.614763711271	0
435	462342	48.619763711271	0
435	463762	48.624843648549	0
435	464826	48.629843648549	0
435	466362	48.634843648549	0
435	467905	48.643546097131	0
435	469051	48.648546097131	0
435	469618	48.653546097131	0
435	470883	48.658546097131	0
435	472736	48.666492265106	0
435	473767	48.671492265106	0
435	475963	48.678731508159	0
435	477404	48.683731508159	0
435	478317	48.688731508159	0
435	479609	48.693731508159	0
435	481000	48.698731508159	0
435	482172	48.703731508159	0
435	483330	48.708731508159	0
435	484611	48.713731508159	0
435	485810	48.718731508159	0
435	487237	48.723731508159	0
435	488628	48.728731508159	0
435	490366	48.734580891708	0
435	491259	48.739580891708	0
435	492444	48.744580891708	0
435	493185	48.749580891708	0
435	494191	48.754580891708	0
435	494728	48.759580891708	0
435	495961	48.764784055364	0
435	497446	48.769784055364	0
435	498749	48.775006954959	0
435	499998	48.780006954959	0
435	501157	48.785006954959	0
435	501993	48.791124107157	0
435	503009	48.796124107157	0
435	504177	48.801124107157	0
435	506814	48.817732272438	0
435	507870	48.822732272438	0
435	509745	48.831001525192	0
435	510570	48.836001525192	0
435	511629	48.841001525192	0
435	512557	48.846001525192	0
435	513460	48.851001525192	0
435	514551	48.856001525192	0
435	515316	48.861001525192	0
435	515848	48.866001525192	0
435	516624	48.871001525192	0
435	517151	48.876001525192	0
435	518060	48.881001525192	0
435	518331	48.886001525192	0
435	518760	48.891185899094	0
435	519385	48.896185899094	0
435	519823	48.901185899094	0
435	520339	48.906185899094	0
435	520985	48.913846377835	0
435	521949	48.918846377835	0
435	522475	48.923846377835	0
435	522596	48.928846377835	0
435	523772	48.934938325468	0
435	524320	48.939938325468	0
435	524868	48.947680968803	0
435	524873	48.952680968803	0
435	526147	49.505	1
435	526632	49.51	29
435	528241	49.515	0
435	529394	49.52	0
435	530543	49.525	0
435	532082	49.530422476697	0
435	532717	49.535422476697	0
435	534348	49.540422476697	0
435	535627	49.545422476697	0
435	536809	49.550422476697	0
435	538240	49.555422476697	0
435	539139	49.560422476697	0
435	541557	49.570201681506	0
435	542855	49.575201681506	0
435	543590	49.580201681506	0
435	547288	49.600370805302	0
435	548094	49.605370805302	0
435	549103	49.610370805302	0
435	550645	49.618010829644	0
435	551961	49.623010829644	0
435	553431	49.628010829644	0
435	554470	49.633010829644	0
435	555123	49.638010829644	0
435	555890	49.643010829644	0
435	557288	49.64952360115	0
435	558312	49.65452360115	0
435	559946	49.65952360115	0
435	560858	49.66452360115	0
435	562101	49.66952360115	0
435	562728	49.67452360115	0
435	563487	49.67952360115	0
435	564537	49.68452360115	0
435	565831	49.68952360115	0
435	566444	49.69452360115	0
435	567350	49.69952360115	0
435	568154	49.70452360115	0
435	569139	49.70952360115	0
435	570422	49.71452360115	0
435	571695	49.71952360115	0
435	572600	49.72452360115	0
435	574424	49.737640359051	0
435	575099	49.742640359051	0
435	576261	49.747640359051	0
435	577042	49.752640359051	0
435	577922	49.757640359051	0
435	578479	49.762640359051	0
435	579375	49.767640359051	0
435	580491	49.772640359051	0
435	580668	49.777640359051	0
435	581327	49.782640359051	0
435	582249	49.787640359051	0
435	582369	49.792640359051	0
435	583312	49.798221117184	0
435	583850	49.803221117184	0
435	583851	49.808221117184	0
435	584630	49.817871879675	0
435	585156	49.822871879675	0
435	585157	49.827871879675	0
435	586205	49.841832055825	0
435	586209	49.846832055825	0
435	586762	49.877800076375	0
435	586878	49.882800076375	0
435	587421	49.888640092339	0
435	587809	49.893640092339	0
435	588181	50.505	1
435	589748	50.51	21
435	591152	50.515	0
435	592512	50.52	0
435	593568	50.525	0
435	594884	50.53	0
435	595668	50.535	0
435	596890	50.54	0
435	597703	50.545	0
435	598967	50.55	0
435	599954	50.555	0
435	600706	50.56	0
435	601588	50.565	0
435	602247	50.57	0
435	602909	50.575	0
435	603786	50.58	0
435	604640	50.585	0
435	605771	50.590668147844	0
435	606432	50.595668147844	0
435	607513	50.601411368626	0
435	608408	50.606411368626	0
435	610059	50.619413546373	0
435	610841	50.624413546373	0
435	612255	50.633106972748	0
435	612918	50.638106972748	0
435	614000	50.643106972748	0
435	614898	50.648106972748	0
435	615547	50.653106972748	0
435	616600	50.658106972748	0
435	617578	50.663106972748	0
435	617832	50.668106972748	0
435	619409	50.677113641681	0
435	620365	50.682113641681	0
435	621353	50.687113641681	0
435	622145	50.696109299297	0
435	622816	50.701109299297	0
435	623842	50.706109299297	0
435	624968	50.711109299297	0
435	625245	50.716109299297	0
435	626359	50.723797806168	0
435	626851	50.728797806168	0
435	627377	50.733797806168	0
435	627983	50.738797806168	0
435	627984	50.743797806168	0
435	628517	50.752151952362	0
435	628523	50.757151952362	0
435	630179	50.77497970169	0
435	630569	50.77997970169	0
435	631115	50.790539487205	0
435	631116	50.795539487205	0
435	631392	51.505	1
435	631402	51.51	0
435	633650	51.51827205405	41
435	635377	51.52327205405	0
435	637614	51.52827205405	0
435	638952	51.53327205405	0
435	639807	51.538799272582	0
435	641076	51.543799272582	0
435	643121	51.548799272582	0
435	644541	51.553799272582	0
435	645944	51.558799272582	0
435	647322	51.563799272582	0
435	648352	51.568799272582	0
435	649313	51.573799272582	0
435	650438	51.578799272582	0
435	651577	51.583799272582	0
435	655216	51.601313887677	0
435	656466	51.606313887677	0
435	658516	51.613238332354	0
435	659559	51.618238332354	0
435	660591	51.623238332354	0
435	662522	51.628238332354	0
435	663455	51.633238332354	0
435	664762	51.638238332354	0
435	665994	51.643733902286	0
435	667291	51.648733902286	0
435	668271	51.653733902286	0
435	669522	51.658733902286	0
435	672325	51.672316176988	0
435	673337	51.677316176988	0
435	676193	51.690186761945	0
435	677405	51.695186761945	0
435	678103	51.700186761945	0
435	679257	51.705186761945	0
435	681475	51.715920665434	0
435	682771	51.720920665434	0
435	683926	51.725920665434	0
435	685149	51.730920665434	0
435	686306	51.735920665434	0
435	687254	51.740920665434	0
435	688298	51.745920665434	0
435	689604	51.750920665434	0
435	691127	51.755920665434	0
435	692255	51.760920665434	0
435	693620	51.770947421062	0
435	694188	51.775947421062	0
435	695381	51.780947421062	0
435	696551	51.785947421062	0
435	697334	51.790947421062	0
435	698918	51.796700202927	0
435	699673	51.801700202927	0
435	700456	51.806700202927	0
435	701410	51.811700202927	0
435	702449	51.816700202927	0
435	703118	51.821700202927	0
435	704224	51.826700202927	0
435	704880	51.831700202927	0
435	706412	51.838409354335	0
435	707720	51.843409354335	0
435	708241	51.848409354335	0
435	709024	51.853409354335	0
435	710997	51.868258153374	0
435	712086	51.873258153374	0
435	712739	51.878258153374	0
435	713534	51.883258153374	0
435	713652	51.888258153374	0
435	714188	51.893258153374	0
435	714984	51.898258153374	0
435	716288	51.903258153374	0
435	717225	51.908258153374	0
435	717226	51.913258153374	0
435	717884	51.922366691051	0
435	718960	51.927366691051	0
435	719405	51.933294714729	0
435	719406	51.938294714729	0
435	721040	51.956731497802	0
435	721041	51.961731497802	0
435	721851	52.505	1
435	721858	52.51	0
435	724603	52.519150760053	47
435	726350	52.524150760053	0
435	727850	52.529150760053	0
435	729629	52.534150760053	0
435	731052	52.539150760053	0
435	731878	52.544150760053	0
435	733748	52.549739039196	0
435	735096	52.554739039196	0
435	736689	52.559739039196	0
435	738033	52.564739039196	0
435	739382	52.570464172119	0
435	740803	52.575464172119	0
435	742217	52.580464172119	0
435	745078	52.591637811508	0
435	746006	52.596637811508	0
435	747359	52.601770223795	0
435	748793	52.606770223795	0
435	754227	52.626788319081	0
435	755324	52.631788319081	0
435	756427	52.636788319081	0
435	757565	52.641788319081	0
435	762125	52.663499847241	0
435	763452	52.668499847241	0
435	768637	52.689372344361	0
435	769846	52.694372344361	0
435	770918	52.699372344361	0
435	772471	52.704372344361	0
435	773527	52.709372344361	0
435	775716	52.71586457032	0
435	776975	52.72086457032	0
435	778971	52.72775786751	0
435	780062	52.73275786751	0
435	781373	52.73775786751	0
435	783647	52.746837449569	0
435	784655	52.751837449569	0
435	786144	52.756837449569	0
435	787536	52.761837449569	0
435	788449	52.766837449569	0
435	789882	52.772079903424	0
435	791201	52.777079903424	0
435	792269	52.782079903424	0
435	794320	52.787079903424	0
435	795514	52.792079903424	0
435	796758	52.797079903424	0
435	797857	52.802654160302	0
435	798972	52.807654160302	0
435	800453	52.815009629111	0
435	801597	52.820009629111	0
435	802543	52.825009629111	0
435	803344	52.830044408417	0
435	804668	52.835044408417	0
435	806220	52.840044408417	0
435	807564	52.845044408417	0
435	808497	52.850044408417	0
435	809522	52.855044408417	0
435	810086	52.860044408417	0
435	812297	52.872126546791	0
435	813387	52.877126546791	0
435	814180	52.882126546791	0
435	815286	52.888521450263	0
435	816733	52.893521450263	0
435	817856	52.898521450263	0
435	819314	52.906578725308	0
435	820102	52.911578725308	0
435	821471	52.917306252648	0
435	822459	52.922306252648	0
435	823240	52.927306252648	0
435	824550	52.932306252648	0
435	825094	52.937306252648	0
435	825645	52.942306252648	0
435	826040	52.947306252648	0
435	826751	52.953109714366	0
435	827292	52.958109714366	0
435	828212	52.963109714366	0
435	828626	52.968109714366	0
435	829576	52.973109714366	0
435	830276	52.978109714366	0
435	830277	52.983109714366	0
435	831607	52.992725641527	0
435	831846	52.997725641527	0
435	833166	53.018983730051	0
435	833167	53.023983730051	0
435	833704	53.043398644179	0
435	833705	53.048398644179	0
435	834249	53.096382666842	0
435	834250	53.101382666842	0
435	834279	53.505	1
435	834289	53.51	0
435	835323	53.517652471427	20
435	836681	53.522652471427	0
435	838082	53.527652471427	0
435	839262	53.532652471427	0
435	840726	53.537652471427	0
435	841801	53.542652471427	0
435	843125	53.547652471427	0
435	844315	53.552652471427	0
435	845618	53.557652471427	0
435	847020	53.562652471427	0
435	847707	53.567652471427	0
435	849801	53.57629679322	0
435	851082	53.58129679322	0
435	853371	53.595711389416	0
435	853906	53.600711389416	0
435	854998	53.605711389416	0
435	856285	53.610711389416	0
435	857754	53.625756949105	0
435	858528	53.630756949105	0
435	862050	53.649751395487	0
435	862712	53.654751395487	0
435	863646	53.659751395487	0
435	864331	53.667063450857	0
435	865001	53.672063450857	0
435	866016	53.677063450857	0
435	867263	53.682063450857	0
435	868140	53.687063450857	0
435	869170	53.69273079815	0
435	869577	53.69773079815	0
435	869846	53.70273079815	0
435	870353	53.70773079815	0
435	870854	53.713072785722	0
435	871479	53.718072785722	0
435	872031	53.723072785722	0
435	872672	53.728072785722	0
435	872962	53.733072785722	0
435	875031	53.756818906972	0
435	875521	53.761818906972	0
435	875525	53.766818906972	0
435	876050	53.776295098918	0
435	876051	53.781295098918	0
435	876975	53.790529198086	0
435	877258	53.795529198086	0
435	877655	53.801085850833	0