version 2
run AODVScenario_1f-72-20121119-16:34:52-3404
attr configname AODVScenario_1f
attr datetime 20121119-16:34:52
attr experiment AODVScenario_1f
attr inifile AODV.ini
attr iterationvars $numNodes=122
attr iterationvars2 "$numNodes=122, $repetition=0"
attr measurement $numNodes=122
attr network csma802154net
attr numNodes 122
attr processid 3404
attr repetition 0
attr replication #0
attr resultdir results
attr runnumber 72
attr seedset 72

vector 499  csma802154net.dataCentricNetworkMan  RREQPacketFrequency  ETV
vector 500  csma802154net.dataCentricNetworkMan  RERRPacketFrequency  ETV
vector 501  csma802154net.dataCentricNetworkMan  DiscoveryPacketFrequency  ETV
vector 502  csma802154net.dataCentricNetworkMan  RegisterPacketFrequency  ETV
vector 503  csma802154net.dataCentricNetworkMan  RReplyPacketFrequency  ETV
vector 504  csma802154net.dataCentricNetworkMan  AODVDataPacketFrequency  ETV
vector 511  csma802154net.dataCentricNetworkMan  pendingRegistrationVector  ETV
vector 510  csma802154net.dataCentricNetworkMan  pendingRREQVector  ETV
vector 508  csma802154net.dataCentricNetworkMan  PendingDataPacketsVector  ETV
vector 513  csma802154net.fixhost[1].udpApp  "End-to-end delay"  ETV
vector 496  csma802154net.dataCentricNetworkMan  dataPacketE2EDelay  ETV
vector 522  csma802154net.fixhost[10].udpApp  "End-to-end delay"  ETV
vector 516  csma802154net.fixhost[4].udpApp  "End-to-end delay"  ETV
vector 523  csma802154net.fixhost[11].udpApp  "End-to-end delay"  ETV
vector 545  csma802154net.fixhost[33].udpApp  "End-to-end delay"  ETV
vector 518  csma802154net.fixhost[6].udpApp  "End-to-end delay"  ETV
vector 520  csma802154net.fixhost[8].udpApp  "End-to-end delay"  ETV
vector 521  csma802154net.fixhost[9].udpApp  "End-to-end delay"  ETV
496	1613969	70.015956047394	0.015956047394
496	1615752	70.031164088911	0.031164088911
496	1616375	70.034652067196	0.034652067196
496	1619061	71.014676051409	0.014676051409
496	1620246	71.027116075706	0.027116075706
496	1623544	72.025516073614	0.025516073614
496	1627802	73.033796078757	0.033796078757
496	1629636	73.058004111374	0.058004111374
496	1781961	670.022924047394	0.022924047394
496	1783156	670.028644067196	0.028644067196
496	1784193	670.05381208891	0.05381208891
496	1788194	671.022316075706	0.022316075706
496	1788806	671.030532051409	0.030532051409
496	1792130	672.021996073613	0.021996073613
496	1796718	673.029916108345	0.029916108345
496	1797965	673.038196138868	0.038196138868
496	1949701	1270.015956047395	0.015956047395
496	1950890	1270.023844067198	0.023844067198
496	1952120	1270.035252088913	0.035252088913
496	1955347	1271.024556075706	0.024556075706
496	1955958	1271.029004051409	0.029004051409
496	1959282	1272.020716073614	0.020716073614
496	1963539	1273.028036078756	0.028036078756
496	1965372	1273.053524111373	0.053524111373
496	2117480	1870.016916047393	0.016916047393
496	2118922	1870.044324067196	0.044324067196
496	2120156	1870.073972088909	0.073972088909
496	2123400	1871.019476051408	0.019476051408
496	2124020	1871.026404075704	0.026404075704
496	2127318	1872.021996073612	0.021996073612
496	2131327	1873.027076078756	0.027076078756
496	2133150	1873.037524111373	0.037524111373
496	2285136	2470.019796047395	0.019796047395
496	2286580	2470.048804067197	0.048804067197
496	2287815	2470.078452088912	0.078452088912
496	2291027	2471.019156051408	0.019156051408
496	2291641	2471.021036075706	0.021036075706
496	2294939	2472.020396073614	0.020396073614
496	2298948	2473.025476078755	0.025476078755
496	2300771	2473.036564111373	0.036564111373
496	2453688	3070.027012047395	0.027012047395
496	2454298	3070.029636088913	0.029636088913
496	2454922	3070.038172067198	0.038172067198
496	2457860	3071.015636051409	0.015636051409
496	2459053	3071.044004075706	0.044004075706
496	2462351	3072.020076073614	0.020076073614
496	2467568	3073.031164078756	0.031164078756
496	2468193	3073.033932111373	0.033932111373
496	2621231	3670.025196067197	0.025196067197
496	2622123	3670.027396088911	0.027396088911
496	2622747	3670.054212047394	0.054212047394
496	2625976	3671.020684051409	0.020684051409
496	2627501	3671.048732075706	0.048732075706
496	2630799	3672.020076073614	0.020076073614
496	2634806	3673.025156078757	0.025156078757
496	2636632	3673.036244111372	0.036244111372
496	2789556	4270.024484067195	0.024484067195
496	2790195	4270.026756088912	0.026756088912
496	2790815	4270.041020047394	0.041020047394
496	2793719	4271.015636051408	0.015636051408
496	2794913	4271.045604075706	0.045604075706
496	2798211	4272.024876073613	0.024876073613
496	2802484	4273.023236078755	0.023236078755
496	2804318	4273.057612111373	0.057612111373
496	2956601	4870.020436047395	0.020436047395
496	2957199	4870.022316067197	0.022316067197
496	2959005	4870.052284088913	0.052284088913
496	2961929	4871.014676051408	0.014676051408
496	2963122	4871.043684075704	0.043684075704
496	2966420	4872.021676073614	0.021676073614
496	2970677	4873.029316078756	0.029316078756
496	2972510	4873.058644111373	0.058644111373
496	3125209	5470.020716067198	0.020716067198
496	3125840	5470.022924047395	0.022924047395
496	3127039	5470.048764088912	0.048764088912
496	3130269	5471.022316075705	0.022316075705
496	3130881	5471.025732051409	0.025732051409
496	3134205	5472.021036073614	0.021036073614
496	3139416	5473.033396138868	0.033396138868
496	3140033	5473.035604108345	0.035604108345
496	3292371	6070.019724047394	0.019724047394
496	3293222	6070.022316067197	0.022316067197
496	3294456	6070.051252088912	0.051252088912
496	3297687	6071.020716075706	0.020716075706
496	3298299	6071.031172051408	0.031172051408
496	3301623	6072.021036073613	0.021036073613
496	3306216	6073.031196108345	0.031196108345
496	3307463	6073.040364138868	0.040364138868
496	3459199	6670.018196047394	0.018196047394
496	3460986	6670.028924088912	0.028924088912
496	3461609	6670.033940067197	0.033940067197
496	3464296	6671.016276051409	0.016276051409
496	3465472	6671.021996075706	0.021996075706
496	3469402	6672.023276073614	0.023276073614
496	3474260	6673.033756108344	0.033756108344
496	3475512	6673.063724138866	0.063724138866
496	3627370	7270.016276047395	0.016276047395
496	3629150	7270.031164088913	0.031164088913
496	3629773	7270.035684067198	0.035684067198
496	3633017	7271.021996075706	0.021996075706
496	3633629	7271.033092051408	0.033092051408
496	3636953	7272.022316073613	0.022316073613
496	3641549	7273.029564078757	0.029564078757
496	3642796	7273.040972111374	0.040972111374
499	969	1.005	1
499	1107	1.01	0
499	2018	1.016392980461	99
499	3634	1.021392980461	123
499	6648	1.026392980461	135
499	10030	1.031392980461	141
499	13408	1.036392980461	84
499	16011	1.041392980461	109
499	19028	1.046392980461	126
499	20910	1.051392980461	81
499	22844	1.056392980461	126
499	24933	1.061392980461	96
499	27305	1.066392980461	166
499	28495	1.071392980461	80
499	29743	1.076392980461	98
499	31016	1.081392980461	47
499	32474	1.086392980461	95
499	34186	1.091392980461	179
499	35242	1.096392980461	59
499	36706	1.101392980461	116
499	37803	1.106392980461	65
499	38523	1.111392980461	38
499	39653	1.116392980461	73
499	40635	1.121392980461	96
499	40636	1.126392980461	0
499	42446	1.137516911098	133
499	43730	1.142516911098	105
499	44487	1.147516911098	78
499	44497	1.152516911098	0
499	45205	1.159495030873	37
499	45206	1.164495030873	0
499	45717	1.172976591198	52
499	46187	1.177976591198	45
499	46188	1.182976591198	0
499	46745	1.19566252972	61
499	46746	1.20066252972	0
499	47350	1.210072271187	45
499	47657	1.215072271187	38
499	47658	1.220072271187	0
499	48303	1.245177314038	54
499	48626	1.250177314038	40
499	48984	1.255177314038	22
499	48985	1.260177314038	0
499	49458	1.274480271187	45
499	49459	1.279480271187	0
499	60068	43.505	1
499	60078	43.51	0
499	62076	43.517868557542	39
499	64131	43.522868557542	0
499	66298	43.530882647391	0
499	67626	43.535882647391	0
499	68399	43.540882647391	0
499	70002	43.545882647391	0
499	71187	43.550882647391	0
499	72647	43.555882647391	0
499	73846	43.560882647391	0
499	75300	43.565882647391	0
499	76156	43.570882647391	0
499	77753	43.575882647391	0
499	79047	43.580882647391	0
499	80326	43.585882647391	0
499	82054	43.592387612716	0
499	83615	43.597387612716	0
499	84911	43.602387612716	0
499	86529	43.610147538062	0
499	87805	43.615147538062	0
499	89253	43.620147538062	0
499	90429	43.625147538062	0
499	91870	43.630147538062	0
499	93198	43.635147538062	0
499	94099	43.640147538062	0
499	96420	43.650108087013	0
499	97410	43.655108087013	0
499	99809	43.668108411864	0
499	100796	43.673108411864	0
499	102105	43.678108411864	0
499	104033	43.683108411864	0
499	105077	43.688108411864	0
499	106791	43.693647579365	0
499	108076	43.698647579365	0
499	109371	43.703647579365	0
499	110653	43.708647579365	0
499	111382	43.713647579365	0
499	112711	43.72320223455	0
499	113602	43.72820223455	0
499	115286	43.73320223455	0
499	116158	43.73820223455	0
499	118319	43.750377414165	0
499	119430	43.755377414165	0
499	120580	43.760377414165	0
499	121976	43.765377414165	0
499	123408	43.770377414165	0
499	124124	43.775377414165	0
499	125338	43.780377414165	0
499	126595	43.785377414165	0
499	128307	43.790377414165	0
499	129367	43.795377414165	0
499	133778	43.816082686623	0
499	134684	43.821082686623	0
499	135492	43.826082686623	0
499	136352	43.831082686623	0
499	137064	43.836082686623	0
499	138394	43.841082686623	0
499	139404	43.846082686623	0
499	140392	43.851082686623	0
499	141234	43.856082686623	0
499	143594	43.872866204712	0
499	144472	43.877866204712	0
499	145977	43.893254538823	0
499	146866	43.898254538823	0
499	148294	43.903254538823	0
499	149032	43.908254538823	0
499	149459	43.913254538823	0
499	150885	43.922403034415	0
499	151575	43.927403034415	0
499	152482	43.936036283625	0
499	152615	43.941036283625	0
499	154392	43.95267572943	0
499	155239	43.95767572943	0
499	155829	43.964195938815	0
499	156013	43.969195938815	0
499	156014	43.974195938815	0
499	157561	44.505	1
499	160440	44.51	67
499	163549	44.515	0
499	166453	44.52	0
499	168783	44.525	0
499	171953	44.534907566397	0
499	174198	44.539907566397	0
499	178445	44.552225012212	0
499	180135	44.557225012212	0
499	181511	44.562225012212	0
499	183540	44.567225012212	0
499	186927	44.577124894396	0
499	189300	44.582124894396	0
499	192158	44.592431943358	0
499	194112	44.597431943358	0
499	196393	44.604375450973	0
499	197720	44.609375450973	0
499	199197	44.614375450973	0
499	207063	44.639406013845	0
499	209208	44.644406013845	0
499	211030	44.649406013845	0
499	214295	44.658689269494	0
499	215406	44.663689269494	0
499	223048	44.686204599414	0
499	224510	44.691204599414	0
499	228107	44.698246334312	0
499	229434	44.703246334312	0
499	230821	44.708246334312	0
499	233650	44.716913044322	0
499	235487	44.721913044322	0
499	237605	44.726913044322	0
499	238808	44.731913044322	0
499	242255	44.742239257122	0
499	244167	44.747239257122	0
499	245623	44.752239257122	0
499	248596	44.761691723843	0
499	250072	44.766691723843	0
499	256058	44.782693947018	0
499	257656	44.787693947018	0
499	259676	44.792693947018	0
499	264944	44.808468724336	0
499	266256	44.813468724336	0
499	267027	44.818468724336	0
499	269349	44.82486690508	0
499	271272	44.82986690508	0
499	273161	44.83486690508	0
499	274622	44.83986690508	0
499	277619	44.848414039568	0
499	279890	44.853414039568	0
499	281586	44.858414039568	0
499	283428	44.863414039568	0
499	285185	44.868414039568	0
499	286643	44.873414039568	0
499	288758	44.878414039568	0
499	290604	44.883414039568	0
499	291965	44.888414039568	0
499	295338	44.901955413684	0
499	296771	44.906955413684	0
499	298391	44.911955413684	0
499	299555	44.916955413684	0
499	301155	44.922721166951	0
499	302725	44.927721166951	0
499	304019	44.932721166951	0
499	304960	44.937721166951	0
499	306289	44.942721166951	0
499	307555	44.947721166951	0
499	308727	44.952721166951	0
499	310524	44.957721166951	0
499	311255	44.962721166951	0
499	313130	44.968108738832	0
499	314163	44.973108738832	0
499	315335	44.978108738832	0
499	317032	44.983108738832	0
499	318458	44.988108738832	0
499	322072	45.002541660326	0
499	322860	45.007541660326	0
499	324349	45.012541660326	0
499	325426	45.017541660326	0
499	326483	45.022541660326	0
499	327349	45.027541660326	0
499	328976	45.032541660326	0
499	329412	45.037541660326	0
499	331214	45.048926447795	0
499	331999	45.053926447795	0
499	332925	45.058926447795	0
499	333371	45.063926447795	0
499	334325	45.068926447795	0
499	335488	45.073926447795	0
499	336081	45.078926447795	0
499	336403	45.083926447795	0
499	337537	45.088979224831	0
499	337673	45.093979224831	0
499	338313	45.100492830655	0
499	338799	45.105492830655	0
499	339432	45.110492830655	0
499	340040	45.115492830655	0
499	340601	45.120492830655	0
499	341214	45.146963267238	0
499	341346	45.151963267238	0
499	341849	45.157886934782	0
499	341981	45.162886934782	0
499	342476	45.168381963465	0
499	342477	45.173381963465	0
499	342484	45.505	1
499	343116	45.51	57
499	345447	45.515	0
499	348445	45.52	0
499	353697	45.537106368493	0
499	355546	45.542106368493	0
499	357546	45.547778394568	0
499	359030	45.552778394568	0
499	362189	45.562600042901	0
499	363775	45.567600042901	0
499	365660	45.572600042901	0
499	367000	45.577600042901	0
499	369435	45.583976520945	0
499	371155	45.588976520945	0
499	375639	45.603904261778	0
499	376827	45.608904261778	0
499	378733	45.615335701486	0
499	379755	45.620335701486	0
499	380948	45.625335701486	0
499	385387	45.640410297937	0
499	387022	45.645410297937	0
499	388863	45.650410297937	0
499	392721	45.663569399947	0
499	394273	45.668569399947	0
499	397859	45.681076692139	0
499	399372	45.686076692139	0
499	401286	45.693238649444	0
499	402761	45.698238649444	0
499	403975	45.703238649444	0
499	409598	45.722031505686	0
499	411194	45.727031505686	0
499	414035	45.737592174618	0
499	415231	45.742592174618	0
499	417123	45.748164258852	0
499	418561	45.753164258852	0
499	422424	45.766540556525	0
499	423980	45.771540556525	0
499	425151	45.776540556525	0
499	426769	45.781540556525	0
499	429024	45.786540556525	0
499	430533	45.791540556525	0
499	431598	45.796540556525	0
499	433379	45.801540556525	0
499	434991	45.807321752846	0
499	436267	45.812321752846	0
499	437582	45.817321752846	0
499	439197	45.822321752846	0
499	440448	45.827321752846	0
499	441761	45.832321752846	0
499	444262	45.84066613299	0
499	445278	45.84566613299	0
499	446940	45.85066613299	0
499	448268	45.85566613299	0
499	450146	45.862084424852	0
499	451317	45.867084424852	0
499	453659	45.875747232323	0
499	455359	45.880747232323	0
499	456807	45.885747232323	0
499	458296	45.890747232323	0
499	459342	45.895747232323	0
499	460489	45.900747232323	0
499	462158	45.907039866446	0
499	463457	45.912039866446	0
499	464837	45.917039866446	0
499	465885	45.922039866446	0
499	466811	45.927039866446	0
499	468585	45.934891312324	0
499	470301	45.939891312324	0
499	471538	45.944891312324	0
499	471993	45.949891312324	0
499	472704	45.954891312324	0
499	473313	45.960918595405	0
499	474203	45.965918595405	0
499	474818	45.970918595405	0
499	476272	45.976618421116	0
499	477247	45.981618421116	0
499	477999	45.986618421116	0
499	478890	45.992070621354	0
499	479523	45.997070621354	0
499	480817	46.002070621354	0
499	482018	46.009284256608	0
499	482150	46.014284256608	0
499	482645	46.019964975867	0
499	483259	46.024964975867	0
499	483867	46.029964975867	0
499	484457	46.034964975867	0
499	484589	46.039964975867	0
499	485080	46.045588829796	0
499	485712	46.050588829796	0
499	485713	46.055588829796	0
499	485720	46.505	1
499	485730	46.51	0
499	488609	46.517453266257	63
499	491569	46.522453266257	0
499	493216	46.527453266257	0
499	494991	46.532453266257	0
499	496838	46.537453266257	0
499	499070	46.542453266257	0
499	500966	46.547453266257	0
499	503999	46.555362511272	0
499	505703	46.560362511272	0
499	509081	46.5717325834	0
499	510962	46.5767325834	0
499	512958	46.5817325834	0
499	514660	46.5867325834	0
499	516588	46.594965738942	0
499	518614	46.599965738942	0
499	520355	46.605008830691	0
499	522445	46.610008830691	0
499	524216	46.615274784138	0
499	525766	46.620274784138	0
499	529345	46.631345475954	0
499	531113	46.636345475954	0
499	532843	46.641345475954	0
499	537603	46.655564261953	0
499	538958	46.660564261953	0
499	539994	46.665564261953	0
499	542045	46.670619390245	0
499	543495	46.675619390245	0
499	552896	46.705316351489	0
499	554395	46.710316351489	0
499	556079	46.715316351489	0
499	558562	46.722348449018	0
499	560135	46.727348449018	0
499	561948	46.732348449018	0
499	563390	46.737348449018	0
499	564815	46.742348449018	0
499	566866	46.747348449018	0
499	568523	46.752348449018	0
499	569864	46.757348449018	0
499	571081	46.762348449018	0
499	573110	46.767348449018	0
499	574842	46.772348449018	0
499	577614	46.77965308424	0
499	579775	46.78465308424	0
499	580940	46.78965308424	0
499	582539	46.79465308424	0
499	584161	46.79965308424	0
499	585475	46.80465308424	0
499	586988	46.80965308424	0
499	588799	46.81465308424	0
499	590430	46.81965308424	0
499	591378	46.82465308424	0
499	593271	46.831669825916	0
499	594487	46.836669825916	0
499	596150	46.841669825916	0
499	597487	46.846669825916	0
499	601437	46.863997105791	0
499	602831	46.868997105791	0
499	604127	46.873997105791	0
499	605592	46.878997105791	0
499	607053	46.883997105791	0
499	607915	46.888997105791	0
499	609111	46.896807094084	0
499	610174	46.901807094084	0
499	614528	46.918663210162	0
499	615377	46.923663210162	0
499	616451	46.928663210162	0
499	617684	46.933663210162	0
499	618817	46.938663210162	0
499	620330	46.946843755785	0
499	621350	46.951843755785	0
499	622101	46.956843755785	0
499	623491	46.961843755785	0
499	624412	46.966843755785	0
499	625353	46.971843755785	0
499	626072	46.976843755785	0
499	626521	46.981843755785	0
499	627672	46.986843755785	0
499	628760	46.991843755785	0
499	629382	46.996843755785	0
499	630233	47.001843755785	0
499	630825	47.006843755785	0
499	631575	47.011843755785	0
499	633189	47.017527169788	0
499	634151	47.022527169788	0
499	636696	47.035219722043	0
499	636986	47.040219722043	0
499	638119	47.045565935475	0
499	638726	47.050565935475	0
499	638863	47.055565935475	0
499	639720	47.060565935475	0
499	640185	47.065772502096	0
499	640186	47.070772502096	0
499	642624	47.093333458905	0
499	643205	47.098333458905	0
499	643836	47.113577151519	0
499	643842	47.118577151519	0
499	644472	47.125671691205	0
499	644473	47.130671691205	0
499	645824	47.505	1
499	646929	47.51	42
499	649603	47.515	0
499	651204	47.52	0
499	652538	47.525	0
499	654510	47.532873605135	0
499	656131	47.537873605135	0
499	657875	47.542873605135	0
499	659325	47.547873605135	0
499	660505	47.552873605135	0
499	661693	47.557873605135	0
499	663133	47.562873605135	0
499	665119	47.568666206798	0
499	666698	47.573666206798	0
499	669044	47.583463544716	0
499	670371	47.588463544716	0
499	671820	47.593463544716	0
499	675894	47.609785857879	0
499	676968	47.614785857879	0
499	679565	47.627230708923	0
499	680983	47.632230708923	0
499	682434	47.637841112499	0
499	683363	47.642841112499	0
499	684811	47.647841112499	0
499	686792	47.654684930094	0
499	687935	47.659684930094	0
499	689869	47.666836352541	0
499	691162	47.671836352541	0
499	693930	47.683606209206	0
499	695197	47.688606209206	0
499	696372	47.693606209206	0
499	698074	47.698606209206	0
499	699522	47.703606209206	0
499	700401	47.708606209206	0
499	701793	47.713606209206	0
499	702973	47.718606209206	0
499	704292	47.723606209206	0
499	705286	47.728606209206	0
499	706452	47.733606209206	0
499	707801	47.738606209206	0
499	708683	47.743606209206	0
499	709580	47.748606209206	0
499	711322	47.753606209206	0
499	712729	47.758606209206	0
499	714531	47.766966535913	0
499	715353	47.771966535913	0
499	717278	47.77923821353	0
499	718455	47.78423821353	0
499	719496	47.78923821353	0
499	720263	47.79423821353	0
499	721163	47.79923821353	0
499	722554	47.80423821353	0
499	724530	47.810312797571	0
499	725144	47.815312797571	0
499	726510	47.820312797571	0
499	727494	47.825312797571	0
499	728508	47.830312797571	0
499	729211	47.835312797571	0
499	730051	47.840312797571	0
499	730981	47.845312797571	0
499	731570	47.850312797571	0
499	732320	47.855312797571	0
499	733049	47.863761884443	0
499	734116	47.868761884443	0
499	734711	47.873761884443	0
499	736791	47.883720389424	0
499	737362	47.888720389424	0
499	737989	47.893720389424	0
499	738738	47.898720389424	0
499	739953	47.903720389424	0
499	740430	47.908720389424	0
499	740872	47.913720389424	0
499	741730	47.918720389424	0
499	742627	47.929570515205	0
499	743395	47.934570515205	0
499	743707	47.939570515205	0
499	744408	47.944570515205	0
499	745000	47.950928822229	0
499	746075	47.955928822229	0
499	746777	47.960928822229	0
499	748367	48.505	1
499	748374	48.51	0
499	750936	48.518381966725	46
499	753677	48.523381966725	0
499	755738	48.528381966725	0
499	757431	48.533381966725	0
499	758581	48.538381966725	0
499	760096	48.543381966725	0
499	761422	48.548381966725	0
499	765516	48.561401298639	0
499	766435	48.566401298639	0
499	767354	48.571401298639	0
499	770332	48.578390253979	0
499	771905	48.583390253979	0
499	773382	48.588390253979	0
499	778227	48.603043238884	0
499	779495	48.608043238884	0
499	782904	48.616868923144	0
499	784498	48.621868923144	0
499	786016	48.626868923144	0
499	787652	48.631868923144	0
499	789533	48.636868923144	0
499	791877	48.645424407884	0
499	793198	48.650424407884	0
499	794526	48.655424407884	0
499	796454	48.663363710517	0
499	798234	48.668363710517	0
499	799537	48.673363710517	0
499	802321	48.683529953748	0
499	803537	48.688529953748	0
499	805098	48.693529953748	0
499	808532	48.708891335798	0
499	810118	48.713891335798	0
499	813901	48.726024927576	0
499	815908	48.731024927576	0
499	817529	48.736024927576	0
499	818968	48.741024927576	0
499	819997	48.746024927576	0
499	821274	48.751024927576	0
499	824307	48.760235497559	0
499	825359	48.765235497559	0
499	826714	48.770235497559	0
499	828037	48.775235497559	0
499	828966	48.780235497559	0
499	830263	48.785235497559	0
499	831694	48.790235497559	0
499	832869	48.795235497559	0
499	834302	48.800235497559	0
499	835668	48.805235497559	0
499	836939	48.810235497559	0
499	838086	48.817339266285	0
499	838707	48.822339266285	0
499	840243	48.827339266285	0
499	840886	48.832339266285	0
499	842367	48.837534155977	0
499	843397	48.842534155977	0
499	844422	48.847534155977	0
499	845589	48.852534155977	0
499	846816	48.857534155977	0
499	848030	48.862534155977	0
499	849080	48.867534155977	0
499	849217	48.872534155977	0
499	849808	48.878936662955	0
499	850312	48.883936662955	0
499	851347	48.888936662955	0
499	852678	48.893936662955	0
499	855486	48.9125789392	0
499	856101	48.9175789392	0
499	856848	48.9225789392	0
499	857274	48.9275789392	0
499	858352	48.934287833028	0
499	859063	48.939287833028	0
499	859368	48.944321366752	0
499	860593	48.949321366752	0
499	861024	48.954321366752	0
499	862355	48.962483733195	0
499	863127	48.967483733195	0
499	863426	48.972483733195	0
499	866970	49.000865320998	0
499	867429	49.005865320998	0
499	868026	49.010865320998	0
499	868212	49.015865320998	0
499	868395	49.505	1
499	871386	49.51	66
499	874009	49.515	0
499	876197	49.52	0
499	879106	49.525998518862	0
499	881116	49.530998518862	0
499	882634	49.535998518862	0
499	884288	49.540998518862	0
499	888034	49.552459960713	0
499	889270	49.557459960713	0
499	894425	49.571749250712	0
499	896192	49.576749250712	0
499	897692	49.581749250712	0
499	900995	49.59226165238	0
499	902634	49.59726165238	0
499	904443	49.603234195768	0
499	905644	49.608234195768	0
499	907093	49.613234195768	0
499	910948	49.624748789899	0
499	912324	49.629748789899	0
499	913993	49.634748789899	0
499	915809	49.639748789899	0
499	918813	49.649364652537	0
499	920317	49.654364652537	0
499	924840	49.669464442148	0
499	926356	49.674464442148	0
499	927854	49.679464442148	0
499	931368	49.693343779977	0
499	933119	49.698343779977	0
499	936585	49.711394898295	0
499	937798	49.716394898295	0
499	939634	49.721394898295	0
499	941247	49.726394898295	0
499	943560	49.734983485221	0
499	945111	49.739983485221	0
499	946594	49.744983485221	0
499	948111	49.749983485221	0
499	949791	49.75548133538	0
499	951600	49.76048133538	0
499	953449	49.76548133538	0
499	954690	49.77048133538	0
499	956056	49.77548133538	0
499	958145	49.78048133538	0
499	959749	49.78548133538	0
499	961962	49.79048133538	0
499	963217	49.79548133538	0
499	964619	49.80048133538	0
499	966816	49.808369560714	0
499	968433	49.813369560714	0
499	970282	49.818369560714	0
499	972277	49.827494824833	0
499	973599	49.832494824833	0
499	975239	49.837494824833	0
499	976865	49.843119518967	0
499	977933	49.848119518967	0
499	979208	49.853119518967	0
499	981287	49.858119518967	0
499	982998	49.863119518967	0
499	986247	49.875338935969	0
499	987953	49.880338935969	0
499	989153	49.885338935969	0
499	991037	49.890338935969	0
499	992672	49.895338935969	0
499	994224	49.900338935969	0
499	995438	49.905338935969	0
499	996773	49.910338935969	0
499	998260	49.915338935969	0
499	999661	49.920338935969	0
499	1001131	49.925338935969	0
499	1002651	49.930338935969	0
499	1004421	49.935338935969	0
499	1005920	49.940338935969	0
499	1006692	49.945338935969	0
499	1007611	49.950338935969	0
499	1008964	49.955338935969	0
499	1010007	49.960338935969	0
499	1011663	49.966830557033	0
499	1012536	49.971830557033	0
499	1013597	49.976830557033	0
499	1014378	49.981830557033	0
499	1016187	49.989200490831	0
499	1017248	49.994200490831	0
499	1018638	49.999200490831	0
499	1019604	50.004200490831	0
499	1020702	50.009769738374	0
499	1021979	50.014769738374	0
499	1023397	50.020329583259	0
499	1024282	50.025329583259	0
499	1025981	50.037394652537	0
499	1027027	50.042394652537	0
499	1027505	50.048244663007	0
499	1028405	50.053244663007	0
499	1028998	50.058244663007	0
499	1030524	50.073702675342	0
499	1030793	50.078702675342	0
499	1031992	50.083702675342	0
499	1032625	50.088702675342	0
499	1032626	50.093702675342	0
499	1033320	50.109043837548	0
499	1033452	50.114043837548	0
499	1034609	50.120219081769	0
499	1034610	50.125219081769	0
499	1034617	50.505	1
499	1034624	50.51	0
499	1036415	50.518479602365	33
499	1037526	50.523479602365	0
499	1039175	50.528479602365	0
499	1040945	50.533479602365	0
499	1041986	50.538479602365	0
499	1043787	50.544300267307	0
499	1045276	50.549300267307	0
499	1046615	50.554300267307	0
499	1047646	50.559300267307	0
499	1051034	50.575178565666	0
499	1051932	50.580178565666	0
499	1053446	50.585178565666	0
499	1054501	50.590178565666	0
499	1055856	50.595178565666	0
499	1057721	50.600178565666	0
499	1058787	50.605178565666	0
499	1059802	50.610178565666	0
499	1061594	50.616762823718	0
499	1062789	50.621762823718	0
499	1063906	50.626762823718	0
499	1065256	50.631762823718	0
499	1066147	50.636762823718	0
499	1067388	50.641762823718	0
499	1068414	50.646762823718	0
499	1069427	50.651762823718	0
499	1070908	50.656762823718	0
499	1072088	50.661762823718	0
499	1073274	50.667762843863	0
499	1073892	50.672762843863	0
499	1074547	50.677762843863	0
499	1075609	50.683533061783	0
499	1076944	50.688533061783	0
499	1078032	50.693533061783	0
499	1078917	50.698533061783	0
499	1079968	50.703533061783	0
499	1080716	50.708533061783	0
499	1081295	50.717472043702	0
499	1082194	50.722472043702	0
499	1084489	50.741583711475	0
499	1085559	50.746583711475	0
499	1086468	50.751583711475	0
499	1087793	50.759276440795	0
499	1088729	50.764276440795	0
499	1089629	50.769276440795	0
499	1090734	50.774276440795	0
499	1091359	50.779276440795	0
499	1092863	50.787704665119	0
499	1093574	50.792704665119	0
499	1095697	50.814745236376	0
499	1096575	50.819745236376	0
499	1096746	50.824745236376	0
499	1097327	50.832527656996	0
499	1097896	50.837527656996	0
499	1098500	50.842527656996	0
499	1098632	50.847527656996	0
499	1099701	50.859127735864	0
499	1100329	50.864127735864	0
499	1100911	50.869127735864	0
499	1101520	50.874127735864	0
499	1101521	50.879127735864	0
499	1102113	50.895597089806	0
499	1102114	50.900597089806	0
499	1102560	51.505	1
499	1105295	51.51	41
499	1107528	51.515	0
499	1109348	51.52	0
499	1111722	51.525	0
499	1113461	51.53	0
499	1114862	51.535	0
499	1117639	51.54	0
499	1118991	51.545	0
499	1120444	51.55	0
499	1121772	51.555	0
499	1123522	51.56	0
499	1125155	51.565983614655	0
499	1126220	51.570983614655	0
499	1127677	51.575983614655	0
499	1128717	51.580983614655	0
499	1129590	51.585983614655	0
499	1132515	51.593835912437	0
499	1133713	51.598835912437	0
499	1136546	51.608857616319	0
499	1138204	51.613857616319	0
499	1139256	51.618857616319	0
499	1140647	51.623857616319	0
499	1142423	51.628969045376	0
499	1143173	51.633969045376	0
499	1145157	51.642492958142	0
499	1146382	51.647492958142	0
499	1148222	51.654075400998	0
499	1150096	51.659075400998	0
499	1151542	51.664075400998	0
499	1152782	51.669075400998	0
499	1154147	51.674075400998	0
499	1155061	51.679075400998	0
499	1156411	51.684075400998	0
499	1157745	51.689075400998	0
499	1158722	51.694075400998	0
499	1161014	51.702872350277	0
499	1162192	51.707872350277	0
499	1163545	51.712872350277	0
499	1164377	51.717872350277	0
499	1165308	51.722872350277	0
499	1166320	51.727872350277	0
499	1168716	51.737275633454	0
499	1169775	51.742275633454	0
499	1170701	51.747275633454	0
499	1172532	51.754156994774	0
499	1173596	51.759156994774	0
499	1174822	51.764156994774	0
499	1175779	51.769156994774	0
499	1177655	51.777671169215	0
499	1178880	51.782671169215	0
499	1179931	51.787671169215	0
499	1180857	51.792671169215	0
499	1181455	51.797671169215	0
499	1182410	51.803758189691	0
499	1183813	51.808758189691	0
499	1184464	51.813758189691	0
499	1186419	51.826342954574	0
499	1187212	51.831342954574	0
499	1187978	51.836342954574	0
499	1188470	51.841342954574	0
499	1189691	51.851698294037	0
499	1190333	51.856698294037	0
499	1190943	51.861698294037	0
499	1190947	51.866698294037	0
499	1192448	51.901767314188	0
499	1193368	51.906767314188	0
499	1193369	51.911767314188	0
499	1194125	51.960317027171	0
499	1195211	51.965317027171	0
499	1195218	51.970317027171	0
499	1195812	51.977151329299	0
499	1195813	51.982151329299	0
499	1196660	52.00184226996	0
499	1196661	52.00684226996	0
499	1196731	52.505	1
499	1196738	52.51	0
499	1200296	52.519838905379	73
499	1203092	52.524838905379	0
499	1210269	52.543013368188	0
499	1213444	52.548013368188	0
499	1215224	52.553013368188	0