file 107792 1351711698                                          
version 2
run AODVScenario_1e-0-20121031-18:30:04-3360
attr configname AODVScenario_1e
attr datetime 20121031-18:30:04
attr experiment AODVScenario_1e
attr inifile AODV.ini
attr iterationvars ""
attr iterationvars2 $repetition=0
attr measurement ""
attr network csma802154net
attr processid 3360
attr repetition 0
attr replication #0
attr resultdir results
attr runnumber 0
attr seedset 0

vector 517  csma802154net.dataCentricNetworkMan  pendingRREQVector  ETV
vector 511  csma802154net.dataCentricNetworkMan  RREQPacketFrequency  ETV
vector 512  csma802154net.dataCentricNetworkMan  DiscoveryPacketFrequency  ETV
vector 513  csma802154net.dataCentricNetworkMan  RegisterPacketFrequency  ETV
vector 514  csma802154net.dataCentricNetworkMan  RReplyPacketFrequency  ETV
vector 515  csma802154net.dataCentricNetworkMan  AODVDataPacketFrequency  ETV
vector 518  csma802154net.dataCentricNetworkMan  pendingRegistrationVector  ETV
vector 525  csma802154net.fixhost[6].udpApp  "End-to-end delay"  ETV
vector 508  csma802154net.dataCentricNetworkMan  dataPacketE2EDelay  ETV
vector 538  csma802154net.fixhost[19].udpApp  "End-to-end delay"  ETV
vector 539  csma802154net.fixhost[20].udpApp  "End-to-end delay"  ETV
vector 536  csma802154net.fixhost[17].udpApp  "End-to-end delay"  ETV
vector 531  csma802154net.fixhost[12].udpApp  "End-to-end delay"  ETV
vector 528  csma802154net.fixhost[9].udpApp  "End-to-end delay"  ETV
vector 529  csma802154net.fixhost[10].udpApp  "End-to-end delay"  ETV
vector 522  csma802154net.fixhost[3].udpApp  "End-to-end delay"  ETV
vector 521  csma802154net.fixhost[2].udpApp  "End-to-end delay"  ETV
vector 520  csma802154net.fixhost[1].udpApp  "End-to-end delay"  ETV
vector 535  csma802154net.fixhost[16].udpApp  "End-to-end delay"  ETV
vector 530  csma802154net.fixhost[11].udpApp  "End-to-end delay"  ETV
508	1872 7038 94639 2703976 70.008996037287 7273.061700135938 156 0.006436037288 8.645869964572 17.984187736673 84.837595252669
511	8910 18598 1005 2704109 1.005 7273.062204109635 653 0 351 41837 5911077
512	27508 18035 1005 2704109 1.005 7273.062204109635 653 0 0 0 0
513	45543 18035 1005 2704109 1.005 7273.062204109635 653 0 1 12 12
514	63578 18035 1005 2704109 1.005 7273.062204109635 653 0 3 31 49
515	81613 18035 1005 2704109 1.005 7273.062204109635 653 0 4 383 923
517	99648 581 870 592831 1 80.512517926622 20 1 6 59 211
518	100229 525 63206 78888 3 14.008996032347 24 0 1 12 12
520	100754 582 488833 2700384 73.4992442123 7273.022956080487 13 0.01975608049 0.4992442123 0.910597178165 0.26569985613337
521	101336 584 488087 2703976 73.494964224421 7273.061700135938 13 0.027996135941 0.494964224421 1.039757855701 0.27169534213496
522	101920 584 467891 2703254 73.370728063635 7273.058324161507 13 0.02927616151 0.370728063635 1.012802001744 0.17881700274381
525	102504 591 94639 2685146 70.008996037287 7270.008356037288 13 0.006436037288 0.009956037288 0.112788484739 0.00099166429920408
528	103095 592 207090 2688200 71.319416044399 7271.008676043737 13 0.007716043736 0.319416044399 0.423208569242 0.10293140717061
529	103687 592 324246 2693347 72.340690827033 7272.021996099527 13 0.020396099527 0.340690827033 0.736228021349 0.13128583739702
530	104279 580 617608 2694767 80.645869964572 7272.03244413366 13 0.025156133659 8.645869964572 9.152527568484 74.775596763791
531	104859 570 194848 2688860 71.267440000226 7271.01247608791 13 0.011516087909 0.267440000226 0.423873055145 0.073581476776827
535	105429 592 546619 2696207 74.999571272385 7272.038484159115 13 0.032404159115 2.999571272385 3.563277181755 9.0272373856002
536	106021 589 97695 2689524 71.009636036606 7271.017556124952 13 0.009636036606 0.019156124952 0.218709536027 0.0037505414814903
538	106610 591 95348 2685855 70.012796074584 7270.012156074585 13 0.009916074585 0.014396074585 0.167308969599 0.0021694638852474
539	107201 591 96032 2686539 70.017236101132 7270.017236101133 13 0.014996101133 0.018516101133 0.223109314723 0.0038385112550882
