version 2
run AODVScenario_1f-10-20121119-16:00:52-3160
attr configname AODVScenario_1f
attr datetime 20121119-16:00:52
attr experiment AODVScenario_1f
attr inifile AODV.ini
attr iterationvars $numNodes=60
attr iterationvars2 "$numNodes=60, $repetition=0"
attr measurement $numNodes=60
attr network csma802154net
attr numNodes 60
attr processid 3160
attr repetition 0
attr replication #0
attr resultdir results
attr runnumber 10
attr seedset 10

vector 251  csma802154net.dataCentricNetworkMan  RREQPacketFrequency  ETV
vector 252  csma802154net.dataCentricNetworkMan  RERRPacketFrequency  ETV
vector 253  csma802154net.dataCentricNetworkMan  DiscoveryPacketFrequency  ETV
vector 254  csma802154net.dataCentricNetworkMan  RegisterPacketFrequency  ETV
vector 255  csma802154net.dataCentricNetworkMan  RReplyPacketFrequency  ETV
vector 256  csma802154net.dataCentricNetworkMan  AODVDataPacketFrequency  ETV
vector 263  csma802154net.dataCentricNetworkMan  pendingRegistrationVector  ETV
vector 262  csma802154net.dataCentricNetworkMan  pendingRREQVector  ETV
vector 260  csma802154net.dataCentricNetworkMan  PendingDataPacketsVector  ETV
vector 288  csma802154net.fixhost[24].udpApp  "End-to-end delay"  ETV
vector 248  csma802154net.dataCentricNetworkMan  dataPacketE2EDelay  ETV
vector 289  csma802154net.fixhost[25].udpApp  "End-to-end delay"  ETV
vector 279  csma802154net.fixhost[15].udpApp  "End-to-end delay"  ETV
vector 280  csma802154net.fixhost[16].udpApp  "End-to-end delay"  ETV
vector 285  csma802154net.fixhost[21].udpApp  "End-to-end delay"  ETV
vector 269  csma802154net.fixhost[5].udpApp  "End-to-end delay"  ETV
vector 270  csma802154net.fixhost[6].udpApp  "End-to-end delay"  ETV
vector 274  csma802154net.fixhost[10].udpApp  "End-to-end delay"  ETV
vector 265  csma802154net.fixhost[1].udpApp  "End-to-end delay"  ETV
vector 266  csma802154net.fixhost[2].udpApp  "End-to-end delay"  ETV
vector 267  csma802154net.fixhost[3].udpApp  "End-to-end delay"  ETV
248	337178	70.009916035644	0.009916035644
248	337470	70.01435606356	0.01435606356
248	339616	71.02611607685	0.02611607685
248	340804	71.068772140917	0.068772140917
248	341412	71.078260163999	0.078260163999
248	342822	72.01595605862	0.01595605862
248	343911	72.028604101824	0.028604101824
248	344866	72.059212139325	0.059212139325
248	347422	73.029596098228	0.029596098228
248	348697	73.064932155341	0.064932155341
248	349357	73.080892180696	0.080892180696
248	423761	670.012796035645	0.012796035645
248	424053	670.01627606356	0.01627606356
248	426199	671.026756076852	0.026756076852
248	427515	671.062692140917	0.062692140917
248	428127	671.091700163999	0.091700163999
248	429664	672.01915605862	0.01915605862
248	430932	672.056724135014	0.056724135014
248	431583	672.067812159368	0.067812159368
248	434131	673.033436098228	0.033436098228
248	435234	673.059924122151	0.059924122151
248	436197	673.086372151227	0.086372151227
248	510601	1270.014716035645	0.014716035645
248	510893	1270.020116063561	0.020116063561
248	513634	1271.030204076852	0.030204076852
248	513932	1271.034892111252	0.034892111252
248	514831	1271.061732134682	0.061732134682
248	516854	1272.029636125	0.029636125
248	517831	1272.04519617645	0.04519617645
248	518157	1272.048676202137	0.048676202137
248	521228	1273.030236098228	0.030236098228
248	522575	1273.056364151227	0.056364151227
248	522923	1273.067140122151	0.067140122151
248	597379	1870.013756035644	0.013756035644
248	597671	1870.01819606356	0.01819606356
248	600264	1871.036596136184	0.036596136184
248	601162	1871.049356150871	0.049356150871
248	601474	1871.055004173952	0.055004173952
248	603489	1872.024196125	0.024196125
248	604466	1872.03815617645	0.03815617645
248	604793	1872.043556202137	0.043556202137
248	607824	1873.033684098227	0.033684098227
248	608488	1873.042604155341	0.042604155341
248	609147	1873.050244180696	0.050244180696
248	683551	2470.014076035645	0.014076035645
248	683843	2470.01819606356	0.01819606356
248	686435	2471.034996136184	0.034996136184
248	687341	2471.047364150871	0.047364150871
248	687649	2471.049884173953	0.049884173953
248	689665	2472.026436125	0.026436125
248	690319	2472.037236156406	0.037236156406
248	690970	2472.048644180761	0.048644180761
248	693532	2473.030556122151	0.030556122151
248	694514	2473.043532098227	0.043532098227
248	695464	2473.065572151226	0.065572151226
248	769868	3070.011516035644	0.011516035644
248	770160	3070.01627606356	0.01627606356
248	772459	3071.028676076851	0.028676076851
248	773627	3071.043956140918	0.043956140918
248	773939	3071.047116164	0.047116164
248	775476	3072.01787605862	0.01787605862
248	776718	3072.050364101824	0.050364101824
248	777366	3072.057932139324	0.057932139324
248	780551	3073.033116122151	0.033116122151
248	781966	3073.062340098228	0.062340098228
248	782282	3073.065252151227	0.065252151227
248	856746	3670.016316035645	0.016316035645
248	857038	3670.021076063561	0.021076063561
248	859046	3671.024836076852	0.024836076852
248	860073	3671.035284111253	0.035284111253
248	860972	3671.067812134682	0.067812134682
248	862509	3672.01595605862	0.01595605862
248	863777	3672.052564135014	0.052564135014
248	864428	3672.063972159369	0.063972159369
248	866977	3673.037276098228	0.037276098228
248	868083	3673.059284122151	0.059284122151
248	869853	3673.117268151227	0.117268151227
248	944258	4270.015676035645	0.015676035645
248	944549	4270.020116063561	0.020116063561
248	947146	4271.031516106515	0.031516106515
248	948044	4271.044732163997	0.044732163997
248	948350	4271.055508140915	0.055508140915
248	949774	4272.017556058618	0.017556058618
248	950856	4272.030844101821	0.030844101821
248	951811	4272.057932139323	0.057932139323
248	954368	4273.027996098225	0.027996098225
248	955646	4273.060452155339	0.060452155339
248	956305	4273.070580180694	0.070580180694
248	1030709	4870.013116035645	0.013116035645
248	1031001	4870.016916063561	0.016916063561
248	1033590	4871.032156106518	0.032156106518
248	1034485	4871.043636140917	0.043636140917
248	1034797	4871.047684163999	0.047684163999
248	1036644	4872.02135609181	0.02135609181
248	1037297	4872.033116123216	0.033116123216
248	1038253	4872.057044139325	0.057044139325
248	1040972	4873.031836098228	0.031836098228
248	1041945	4873.040404122151	0.040404122151
248	1043093	4873.075028151228	0.075028151228
248	1117557	5470.013436035645	0.013436035645
248	1117849	5470.018836063561	0.018836063561
248	1120466	5471.034676121204	0.034676121204
248	1121671	5471.064012106517	0.064012106517
248	1121969	5471.067812135676	0.067812135676
248	1124279	5472.036996125	0.036996125
248	1125059	5472.046836156405	0.046836156405
248	1125714	5472.07456418076	0.07456418076
248	1128773	5473.030876098227	0.030876098227
248	1129728	5473.040364151227	0.040364151227
248	1130553	5473.073540122149	0.073540122149
248	1204950	6070.015356035645	0.015356035645
248	1205241	6070.02011606356	0.02011606356
248	1208140	6071.037164136183	0.037164136183
248	1208439	6071.04007615087	0.04007615087
248	1209046	6071.048924173951	0.048924173951
248	1211068	6072.028036125	0.028036125
248	1211722	6072.035956156406	0.035956156406
248	1212372	6072.04384418076	0.04384418076
248	1215305	6073.033436098228	0.033436098228
248	1216341	6073.061700122151	0.061700122151
248	1217147	6073.090708147506	0.090708147506
248	1291848	6670.013756035644	0.013756035644
248	1292140	6670.01883606356	0.01883606356
248	1294218	6671.026116076851	0.026116076851
248	1295310	6671.061452111253	0.061452111253
248	1296209	6671.089180134683	0.089180134683
248	1297619	6672.01691605862	0.01691605862
248	1298877	6672.033084101824	0.033084101824
248	1299522	6672.038484139325	0.038484139325
248	1302069	6673.029596098228	0.029596098228
248	1303169	6673.051284122151	0.051284122151
248	1304132	6673.079332151225	0.079332151225
248	1378597	7270.015356035645	0.015356035645
248	1378888	7270.019156063561	0.019156063561
248	1381487	7271.038196136184	0.038196136184
248	1382084	7271.04480415087	0.04480415087
248	1382688	7271.050524173952	0.050524173952
248	1384098	7272.01595605862	0.01595605862
248	1385685	7272.039764135013	0.039764135013
248	1386013	7272.0515641607	0.0515641607
248	1388746	7273.03211615534	0.03211615534
248	1389879	7273.048260098226	0.048260098226
248	1391349	7273.086972180695	0.086972180695
251	473	1.005	1
251	623	1.01	8
251	624	1.015	0
251	1321	1.02648336215	63
251	2088	1.03148336215	61
251	3074	1.03648336215	40
251	4113	1.04148336215	46
251	5083	1.04648336215	42
251	5733	1.05148336215	35
251	6378	1.05648336215	24
251	6859	1.06148336215	29
251	7275	1.06648336215	31
251	8087	1.07148336215	73
251	8542	1.07648336215	27
251	9028	1.08148336215	32
251	9305	1.08648336215	18
251	9540	1.09148336215	37
251	9842	1.09648336215	3
251	10067	1.10148336215	19
251	10470	1.10648336215	32
251	10471	1.11148336215	0
251	10700	1.166957506216	21
251	10701	1.171957506216	0
251	15916	43.505	1
251	15923	43.51	0
251	17272	43.518414903617	29
251	18208	43.523414903617	0
251	19071	43.530312550202	0
251	19747	43.535312550202	0
251	20405	43.540312550202	0
251	21074	43.545312550202	0
251	21655	43.550312550202	0
251	22351	43.562723183885	0
251	22942	43.567723183885	0
251	23714	43.574456515362	0
251	24412	43.579456515362	0
251	24732	43.584456515362	0
251	25484	43.589456515362	0
251	25941	43.594456515362	0
251	26505	43.599456515362	0
251	27025	43.604456515362	0
251	29105	43.623595187779	0
251	29730	43.628595187779	0
251	30149	43.633595187779	0
251	32823	43.665250356337	0
251	33439	43.670250356337	0
251	33960	43.675250356337	0
251	34707	43.680250356337	0
251	35079	43.685250356337	0
251	37344	43.70667815257	0
251	37639	43.71167815257	0
251	38422	43.71667815257	0
251	38950	43.72167815257	0
251	39467	43.72667815257	0
251	40337	43.73167815257	0
251	40996	43.73667815257	0
251	41344	43.74167815257	0
251	42102	43.750955309372	0
251	42515	43.755955309372	0
251	42822	43.760955309372	0
251	43266	43.765955309372	0
251	43619	43.770955309372	0
251	43978	43.775955309372	0
251	44435	43.780955309372	0
251	44824	43.785955309372	0
251	45043	43.790955309372	0
251	45737	43.795955309372	0
251	45889	43.800955309372	0
251	46671	43.810167026016	0
251	46677	43.815167026016	0
251	47064	43.820167026016	0
251	47503	43.825167026016	0
251	47736	43.830167026016	0
251	48640	43.842291207289	0
251	48947	43.847291207289	0
251	49256	43.852291207289	0
251	49257	43.857291207289	0
251	49552	43.869293717975	0
251	49553	43.874293717975	0
251	49932	43.906448535323	0
251	50167	43.911448535323	0
251	50168	43.916448535323	0
251	50296	44.505	1
251	50372	44.51	0
251	50946	44.515360582898	12
251	51571	44.520360582898	0
251	52268	44.526084010545	0
251	52706	44.531084010545	0
251	52863	44.536084010545	0
251	53299	44.541084010545	0
251	53734	44.546084010545	0
251	54153	44.551084010545	0
251	54366	44.556084010545	0
251	55032	44.567469683731	0
251	55528	44.572469683731	0
251	56011	44.577469683731	0
251	56165	44.582469683731	0
251	57452	44.598258195744	0
251	58020	44.603258195744	0
251	58498	44.608258195744	0
251	58568	44.613258195744	0
251	58769	44.618598144575	0
251	59062	44.623598144575	0
251	59417	44.628598144575	0
251	59995	44.633598144575	0
251	60374	44.639120175672	0
251	60805	44.644120175672	0
251	61225	44.654701707383	0
251	61372	44.659701707383	0
251	62204	44.689357692025	0
251	62471	44.694357692025	0
251	62763	44.706435250156	0
251	62764	44.711435250156	0
251	62967	45.505	1
251	63553	45.51	28
251	64933	45.515	0
251	65894	45.52	0
251	66587	45.525	0
251	67145	45.53	0
251	67758	45.535	0
251	68659	45.54	0
251	69433	45.545	0
251	70077	45.55	0
251	71555	45.563784656116	0
251	72251	45.568784656116	0
251	75034	45.590606223942	0
251	75608	45.595606223942	0
251	76494	45.601377184743	0
251	76903	45.606377184743	0
251	77591	45.611377184743	0
251	78365	45.616377184743	0
251	81029	45.637344946922	0
251	81414	45.642344946922	0
251	81834	45.647344946922	0
251	84488	45.669069948994	0
251	85125	45.674069948994	0
251	85860	45.679069948994	0
251	86339	45.684069948994	0
251	87075	45.689069948994	0
251	87817	45.694069948994	0
251	88199	45.699069948994	0
251	89319	45.708741564797	0
251	89990	45.713741564797	0
251	90439	45.718741564797	0
251	91782	45.732411615827	0
251	92164	45.737411615827	0
251	92329	45.742411615827	0
251	92652	45.747470302243	0
251	93160	45.752470302243	0
251	94100	45.763149217236	0
251	94348	45.768149217236	0
251	94688	45.773149217236	0
251	95026	45.778149217236	0
251	95466	45.783149217236	0
251	96924	45.795656648563	0
251	97354	45.800656648563	0
251	97821	45.805656648563	0
251	98202	45.810656648563	0
251	99021	45.819352707974	0
251	99022	45.824352707974	0
251	100168	45.840337393342	0
251	100560	45.845337393342	0
251	100630	45.850337393342	0
251	100872	45.856424723175	0
251	100873	45.861424723175	0
251	101001	46.505	1
251	101011	46.51	0
251	101665	46.517754637011	8
251	102264	46.522754637011	0
251	102764	46.528135987329	0
251	103252	46.533135987329	0
251	103257	46.538135987329	0
251	104474	46.552995840736	0
251	104954	46.557995840736	0
251	105306	46.562995840736	0
251	105673	46.567995840736	0
251	106283	46.572995840736	0
251	106658	46.578609288106	0
251	107148	46.583609288106	0
251	107918	46.592444784157	0
251	108121	46.597444784157	0
251	108445	46.602966882543	0
251	108761	46.607966882543	0
251	109154	46.612966882543	0
251	109437	46.617966882543	0
251	109723	46.622966882543	0
251	109724	46.627966882543	0
251	110614	46.677388815386	0
251	110782	46.682388815386	0
251	111150	46.687388815386	0
251	111348	47.505	1
251	111646	47.51	24
251	112825	47.515	0
251	113898	47.52	0
251	114725	47.525	0
251	115618	47.53	0
251	116167	47.535	0
251	116847	47.54	0
251	117769	47.545	0
251	118543	47.55	0
251	119003	47.555	0
251	119742	47.56	0
251	120634	47.565	0
251	121016	47.57	0
251	122108	47.577946779874	0
251	122987	47.582946779874	0
251	123656	47.587946779874	0
251	124342	47.592946779874	0
251	124812	47.597946779874	0
251	125805	47.602946779874	0
251	126675	47.607946779874	0
251	127339	47.612946779874	0
251	128027	47.617946779874	0
251	128894	47.628100780779	0
251	129564	47.633100780779	0
251	130667	47.638100780779	0
251	131110	47.643100780779	0
251	131641	47.648100780779	0
251	132153	47.653100780779	0
251	132918	47.659578885844	0
251	133301	47.664578885844	0
251	134390	47.678685520904	0
251	134947	47.683685520904	0
251	135645	47.688685520904	0
251	135954	47.693685520904	0
251	136525	47.702701262553	0
251	137065	47.707701262553	0
251	137382	47.712701262553	0
251	137701	47.717701262553	0
251	138085	47.725380841033	0
251	138478	47.730380841033	0
251	138933	47.740991047912	0
251	139254	47.745991047912	0
251	140310	47.764768718764	0
251	140314	47.769768718764	0
251	140919	47.77683082643	0
251	140920	47.78183082643	0
251	141540	47.791095074395	0
251	141541	47.796095074395	0
251	141854	47.831622405954	0
251	141855	47.836622405954	0
251	141983	48.505	1
251	141990	48.51	0
251	142712	48.518575598869	15
251	143326	48.523575598869	0
251	144265	48.528575598869	0
251	144646	48.533575598869	0
251	145239	48.538575598869	0
251	145987	48.543575598869	0
251	146518	48.548575598869	0
251	146973	48.553575598869	0
251	147200	48.558575598869	0
251	147932	48.563575598869	0
251	148436	48.568575598869	0
251	149375	48.582932173973	0
251	149705	48.587932173973	0
251	150240	48.592932173973	0
251	150520	48.597932173973	0
251	151173	48.602932173973	0
251	151485	48.607932173973	0
251	152108	48.612932173973	0
251	152741	48.617932173973	0
251	153482	48.622932173973	0
251	154220	48.627932173973	0
251	155707	48.645215673301	0
251	156528	48.650215673301	0
251	156968	48.655215673301	0
251	157574	48.663825188048	0
251	158231	48.668825188048	0
251	158728	48.673825188048	0
251	159046	48.678825188048	0
251	159474	48.683825188048	0
251	160385	48.695931974929	0
251	160597	48.700931974929	0
251	161396	48.710370160111	0
251	161989	48.715370160111	0
251	162152	48.720370160111	0
251	162316	48.725370160111	0
251	163147	49.505	1
251	163973	49.51	24
251	165229	49.515	0
251	165846	49.52	0
251	166511	49.525	0
251	166962	49.53	0
251	168043	49.53574343478	0
251	168637	49.54074343478	0
251	169492	49.548660692132	0
251	169871	49.553660692132	0
251	170517	49.559836698299	0
251	171223	49.564836698299	0
251	171757	49.569836698299	0
251	172537	49.5760208688	0
251	173122	49.5810208688	0
251	173631	49.586776514108	0
251	174237	49.591776514108	0
251	174713	49.596776514108	0
251	175618	49.602985178561	0
251	176279	49.607985178561	0
251	176664	49.612985178561	0
251	177300	49.619069648219	0
251	177912	49.624069648219	0
251	178410	49.629069648219	0
251	179157	49.638722208051	0
251	179236	49.643722208051	0
251	180200	49.652472540791	0
251	180772	49.657472540791	0
251	181399	49.662472540791	0
251	182014	49.667472540791	0
251	182424	49.672472540791	0
251	182814	49.677472540791	0
251	183202	49.682472540791	0
251	183928	49.692428745457	0
251	184314	49.697428745457	0
251	184562	49.702428745457	0
251	184883	49.709709114145	0
251	185115	49.714709114145	0
251	185528	49.724694235996	0
251	185850	49.729694235996	0
251	185851	49.734694235996	0
251	186174	49.745616653898	0
251	186178	49.750616653898	0
251	186493	49.757914360594	0
251	186494	49.762914360594	0
251	186808	49.794678693662	0
251	186809	49.799678693662	0
251	187131	49.817497282039	0
251	187290	49.822497282039	0
251	187445	49.827502710069	0
251	187452	49.832502710069	0
251	187763	49.839378382404	0
251	187764	49.844378382404	0
251	188410	49.881041309207	0
251	188702	49.886041309207	0
251	188848	50.505	1
251	189191	50.51	26
251	190246	50.515	0
251	191420	50.52	0
251	192054	50.525	0
251	192632	50.53	0
251	193214	50.535	0
251	193617	50.54	0
251	194497	50.545	0
251	195429	50.55	0
251	196077	50.555	0
251	196968	50.56	0
251	197643	50.565	0
251	198218	50.57	0
251	198699	50.575	0
251	199181	50.58	0
251	199818	50.585	0
251	200431	50.59	0
251	201195	50.595	0
251	202045	50.6	0
251	202586	50.605	0
251	203148	50.612130066544	0
251	203682	50.617130066544	0
251	204400	50.625034544109	0
251	205037	50.630034544109	0
251	206130	50.646138381768	0
251	206674	50.651138381768	0
251	207145	50.656138381768	0
251	207697	50.661138381768	0
251	208357	50.666138381768	0
251	209017	50.673410937242	0
251	209481	50.678410937242	0
251	209876	50.683410937242	0
251	210539	50.688410937242	0
251	211128	50.693410937242	0
251	211734	50.698410937242	0
251	211897	50.703410937242	0
251	212531	50.71264295978	0
251	213025	50.71764295978	0
251	213493	50.72264295978	0
251	214208	50.733218408868	0
251	214532	50.738218408868	0
251	214955	50.743218408868	0
251	215411	50.748218408868	0
251	215714	50.757610995131	0
251	216161	50.762610995131	0
251	216811	50.767610995131	0
251	217115	50.772610995131	0
251	217756	50.789012274127	0
251	217901	50.794012274127	0
251	218384	50.802804265716	0
251	218385	50.807804265716	0
251	218610	50.819745463402	0
251	218695	50.824745463402	0
251	219332	50.847707474873	0
251	219402	50.852707474873	0
251	219649	50.858405165484	0
251	219650	50.863405165484	0
251	219818	51.505	1
251	220364	51.51	18
251	221443	51.515	0
251	222125	51.52	0
251	222521	51.525	0
251	222940	51.53	0
251	223204	51.535	0
251	223911	51.54	0
251	224484	51.546794261955	0
251	225216	51.551794261955	0
251	225464	51.556794261955	0
251	226725	51.566322083366	0
251	227073	51.571322083366	0
251	227594	51.576322083366	0
251	228082	51.581322083366	0
251	228450	51.586322083366	0
251	229174	51.595503381947	0
251	229672	51.600503381947	0
251	230081	51.605503381947	0
251	230520	51.610503381947	0
251	231268	51.615627189673	0
251	231519	51.620627189673	0
251	232023	51.625627189673	0
251	232262	51.630627189673	0
251	232958	51.642300166555	0
251	233526	51.647300166555	0
251	233932	51.652300166555	0
251	234588	51.657300166555	0
251	234910	51.662300166555	0
251	235654	51.667300166555	0
251	236032	51.672300166555	0
251	236422	51.683561035749	0
251	236839	51.688561035749	0
251	237293	51.693561035749	0
251	237603	51.698561035749	0
251	237604	51.703561035749	0
251	238371	51.723927410186	0
251	238441	51.728927410186	0
251	239645	51.745308045197	0
251	239875	51.750308045197	0
251	240272	51.759416120129	0
251	240342	51.764416120129	0
251	240596	51.769740019294	0
251	240597	51.774740019294	0
251	241222	51.782500049378	0
251	241550	51.787500049378	0
251	241551	51.792500049378	0
251	241884	51.804342450749	0
251	241885	51.809342450749	0
251	242021	52.505	1
251	242028	52.51	0
251	242593	52.519548277876	10
251	243262	52.524548277876	0
251	243877	52.529548277876	0
251	244275	52.534548277876	0
251	244903	52.539548277876	0
251	245442	52.544548277876	0
251	246236	52.549548277876	0
251	246967	52.554548277876	0
251	247388	52.559548277876	0
251	248045	52.564548277876	0
251	248518	52.569548277876	0
251	249023	52.574548277876	0
251	249577	52.579548277876	0
251	250604	52.58777343714	0
251	250999	52.59277343714	0
251	251292	52.59777343714	0
251	251817	52.606840133117	0
251	252058	52.611840133117	0
251	253230	52.627461434234	0
251	253560	52.632461434234	0
251	254090	52.637461434234	0
251	254378	52.642461434234	0
251	254379	52.647461434234	0
251	255011	52.740251623631	0
251	255012	52.745251623631	0
251	255164	53.505	1
251	255240	53.51	0
251	256365	53.515281501953	24
251	257327	53.520281501953	0
251	258250	53.525281501953	0
251	258841	53.530281501953	0
251	259709	53.535281501953	0
251	260505	53.540281501953	0
251	261174	53.545281501953	0
251	262154	53.550281501953	0
251	262637	53.555281501953	0
251	263117	53.560281501953	0
251	263390	53.565281501953	0
251	264175	53.570281501953	0
251	264656	53.575281501953	0
251	267778	53.599323647264	0
251	268720	53.604323647264	0
251	269333	53.609323647264	0
251	271124	53.623670142631	0
251	271528	53.628670142631	0
251	272239	53.633670142631	0
251	272719	53.638670142631	0
251	273362	53.643670142631	0
251	274801	53.656937644804	0
251	275273	53.661937644804	0
251	275832	53.666937644804	0
251	276331	53.671937644804	0
251	276895	53.676937644804	0
251	277501	53.68449604765	0
251	278215	53.68949604765	0
251	278766	53.69449604765	0
251	279082	53.69949604765	0
251	279790	53.70449604765	0
251	280474	53.710855001354	0
251	280546	53.715855001354	0
251	280802	53.721908312496	0
251	281205	53.726908312496	0
251	281673	53.731908312496	0
251	282252	53.736908312496	0
251	282322	53.741908312496	0
251	283251	53.761776051223	0
251	283596	53.766776051223	0
251	283925	53.771776051223	0
251	284236	53.776776051223	0
251	285211	53.793800048971	0
251	285354	53.798800048971	0
251	286079	53.809080086075	0
251	286151	53.814080086075	0
251	287092	53.874302694937	0
251	287093	53.879302694937	0
251	287311	53.898683443222	0
251	287398	53.903683443222	0
251	287877	54.505	34
251	289124	54.51	0
251	290208	54.515	0
251	291163	54.52	0
251	292167	54.525	0
251	292771	54.53	0
251	293349	54.535	0
251	294400	54.54	0
251	295432	54.545	0
251	296259	54.55	0
251	297161	54.555	0
251	297674	54.56	0
251	300567	54.579600163463	0
251	301243	54.584600163463	0
251	302042	54.589600163463	0
251	302948	54.595923900437	0
251	303689	54.600923900437	0
251	304335	54.605923900437	0
251	305149	54.610923900437	0
251	305564	54.615923900437	0
251	306357	54.622451358435	0
251	306677	54.627451358435	0
251	307601	54.632476391516	0
251	308261	54.637476391516	0
251	308825	54.642476391516	0
251	310384	54.650696283278	0
251	310839	54.655696283278	0
251	311352	54.660696283278	0
251	312207	54.667599373874	0
251	312599	54.672599373874	0
251	313325	54.678023039661	0
251	314134	54.683023039661	0
251	314612	54.688023039661	0
251	315938	54.698782680415	0
251	316593	54.703782680415	0
251	317308	54.708782680415	0
251	318133	54.715578130924	0
251	318306	54.720578130924	0
251	318877	54.72904392386	0
251	319801	54.73404392386	0
251	320611	54.73904392386	0
251	321206	54.74404392386	0
251	321934	54.751762408594	0
251	322449	54.756762408594	0
251	323025	54.761762408594	0
251	324532	54.772539843758	0
251	325103	54.777539843758	0
251	325508	54.782539843758	0
251	325933	54.787539843758	0
251	326721	54.792539843758	0
251	327594	54.797539843758	0
251	328003	54.802539843758	0
251	329172	54.813819399388	0
251	329489	54.818819399388	0
251	330133	54.830699386497	0
251	330134	54.835699386497	0
251	330812	54.848725338262	0
251	331162	54.853725338262	0
251	331166	54.858725338262	0
251	331638	54.864886172127	0
251	331981	54.869886172127	0
251	332284	54.874886172127	0
251	332285	54.879886172127	0
251	332629	54.894100569873	0
251	333190	54.899100569873	0
251	333263	54.904100569873	0
251	334267	54.952550112605	0
251	334268	54.957550112605	0
251	336721	70.00501	0
251	337179	70.01001	0
251	337631	70.01501	0
251	337635	70.02001	0
251	338089	71.00501	0
251	338322	71.01001	0
251	338741	71.01501	0
251	339031	71.02001	0
251	339466	71.02501	0
251	339760	71.03001	0
251	339761	71.03501	0
251	340345	71.05853208621	0
251	340415	71.06353208621	0
251	340965	71.069652130535	0
251	341261	71.074652130535	0
251	341562	71.079652130535	0
251	341563	71.084652130535	0
251	342033	72.00501	0
251	342356	72.01001	0
251	342728	72.01501	0
251	343051	72.02001	0
251	343357	72.02501	0
251	344072	72.03001	0
251	344073	72.03501	0
251	344700	72.055652114304	0
251	345018	72.060652114304	0
251	345019	72.065652114304	0
251	345494	73.00501	0
251	345832	73.01001	0
251	346158	73.01501	0
251	346466	73.02001	0
251	347043	73.02501	0
251	347490	73.03001	0
251	347569	73.03501	0
251	348179	73.056612091661	0
251	348410	73.061612091661	0
251	348859	73.066612091661	0
251	349185	73.071612091661	0
251	349186	73.076612091661	0
251	349524	73.085892180696	0
251	349525	73.090892180696	0
251	423144	670.00501	0
251	423616	670.01001	0
251	423914	670.01501	0
251	424217	670.02001	0
251	424218	670.02501	0
251	424581	671.00501	0
251	424996	671.01001	0
251	425324	671.01501	0
251	425617	671.02001	0
251	425920	671.02501	0
251	426343	671.03001	0
251	426344	671.03501	0
251	426930	671.05501208621	0
251	427227	671.06001208621	0
251	427679	671.06501208621	0
251	427680	671.07001208621	0
251	428195	671.09194015017	0
251	428278	671.09694015017	0
251	428745	672.00501	0
251	429068	672.01001	0
251	429371	672.01501	0
251	429827	672.02001	0
251	429828	672.02501	0
251	430438	672.048724081114	0
251	430762	672.053724081114	0
251	431093	672.058724081114	0
251	431414	672.063724081114	0
251	431735	672.068724081114	0
251	431736	672.073724081114	0
251	432101	673.00501	0
251	432457	673.01001	0
251	432550	673.01501	0
251	433174	673.022606044922	0
251	433646	673.027606044922	0
251	434042	673.032606044922	0
251	434277	673.037606044922	0
251	434278	673.042606044922	0
251	434720	673.054124091661	0
251	435123	673.059124091661	0
251	435393	673.064124091661	0
251	435394	673.069124091661	0
251	436026	673.083452124851	0
251	436364	673.088452124851	0
251	436365	673.093452124851	0
251	509984	1270.00501	0
251	510210	1270.01001	0
251	510745	1270.015286024001	0
251	510894	1270.020286024001	0
251	511058	1270.025286024001	0
251	511512	1271.00501	0
251	511839	1271.01001	0
251	512230	1271.01501	0
251	512524	1271.02001	0
251	513044	1271.02501	0
251	513552	1271.03001	0
251	513933	1271.03501	0
251	514094	1271.04001	0
251	514454	1271.058172115877	0
251	514981	1271.063172115877	0
251	514982	1271.068172115877	0
251	515452	1272.00501	0
251	515775	1272.01001	0
251	516084	1272.01501	0
251	516602	1272.02001	0
251	516692	1272.02501	0
251	517014	1272.034636125	0
251	517341	1272.039636125	0
251	517734	1272.044636125	0
251	518309	1272.049636125	0
251	518310	1272.054636125	0
251	518785	1273.00501	0
251	519189	1273.01001	0
251	519446	1273.01501	0
251	519820	1273.02001	0
251	520436	1273.02501	0
251	521139	1273.03001	0
251	521466	1273.03501	0
251	521467	1273.04001	0
251	522397	1273.053444124851	0
251	522742	1273.058444124851	0
251	522743	1273.063444124851	0
251	523082	1273.072140122151	0
251	523083	1273.077140122151	0
251	596918	1870.00501	0
251	597234	1870.01001	0
251	597526	1870.01501	0
251	597835	1870.02001	0
251	597836	1870.02501	0
251	598290	1871.00501	0
251	598614	1871.01001	0
251	598942	1871.01501	0
251	599232	1871.02001	0
251	599526	1871.02501	0
251	599820	1871.03001	0
251	600116	1871.03501	0
251	600408	1871.04001	0
251	600711	1871.04501	0
251	601320	1871.05001	0
251	601475	1871.05501	0
251	601625	1871.06001	0
251	602003	1872.00501	0
251	602418	1872.01001	0
251	602791	1872.01501	0
251	603094	1872.02001	0
251	603649	1872.02501	0
251	603719	1872.03001	0
251	604300	1872.035236145718	0
251	604627	1872.040236145718	0
251	604945	1872.045236145718	0
251	604946	1872.050236145718	0
251	605418	1873.00501	0
251	605753	1873.01001	0
251	606079	1873.01501	0
251	606384	1873.02001	0
251	606700	1873.02501	0
251	607278	1873.03001	0
251	607970	1873.03501	0
251	608311	1873.04001	0
251	608716	1873.04501	0
251	609045	1873.05001	0
251	609314	1873.05501	0
251	609315	1873.06001	0
251	683090	2470.00501	0
251	683406	2470.01001	0
251	683698	2470.01501	0
251	684007	2470.02001	0
251	684008	2470.02501	0
251	684462	2471.00501	0
251	684786	2471.01001	0
251	685111	2471.01501	0
251	685404	2471.02001	0
251	685768	2471.02501	0
251	686058	2471.03001	0
251	686436	2471.03501	0
251	686879	2471.04001	0
251	687182	2471.04501	0
251	687650	2471.05001	0
251	687800	2471.05501	0
251	688267	2472.00501	0
251	688590	2472.01001	0
251	688896	2472.01501	0
251	689206	2472.02001	0
251	689506	2472.02501	0
251	689828	2472.03001	0
251	690152	2472.03501	0
251	690480	2472.04001	0
251	690804	2472.04501	0
251	691122	2472.05001	0
251	691123	2472.05501	0
251	691595	2473.00501	0
251	691933	2473.01001	0
251	692259	2473.01501	0
251	692564	2473.02001	0
251	692945	2473.02501	0
251	693352	2473.03001	0
251	694026	2473.03501	0
251	694356	2473.04001	0
251	694660	2473.04501	0
251	694661	2473.05001	0
251	695293	2473.06169212485	0
251	695631	2473.06669212485	0
251	695632	2473.07169212485	0
251	769407	3070.00501	0
251	769726	3070.01001	0
251	770021	3070.01501	0
251	770324	3070.02001	0
251	770325	3070.02501	0
251	770688	3071.00501	0
251	771100	3071.01001	0
251	771173	3071.01501	0
251	771498	3071.020046041712	0
251	772081	3071.025046041712	0
251	772669	3071.030046041712	0
251	772893	3071.035046041712	0
251	773193	3071.040046041712	0
251	773791	3071.045046041712	0
251	774089	3071.050046041712	0
251	774090	3071.055046041712	0
251	774557	3072.00501	0
251	774877	3072.01001	0
251	775183	3072.01501	0
251	775639	3072.02001	0
251	775640	3072.02501	0
251	776274	3072.046484081114	0
251	776945	3072.051484081114	0
251	777203	3072.056484081114	0