version 2
run AODVScenario_1f-10-20121119-11:07:02-3764
attr configname AODVScenario_1f
attr datetime 20121119-11:07:02
attr experiment AODVScenario_1f
attr inifile AODV.ini
attr iterationvars $numNodes=60
attr iterationvars2 "$numNodes=60, $repetition=0"
attr measurement $numNodes=60
attr network csma802154net
attr numNodes 60
attr processid 3764
attr repetition 0
attr replication #0
attr resultdir results
attr runnumber 10
attr seedset 10

vector 251  csma802154net.dataCentricNetworkMan  RREQPacketFrequency  ETV
vector 252  csma802154net.dataCentricNetworkMan  RERRPacketFrequency  ETV
vector 253  csma802154net.dataCentricNetworkMan  DiscoveryPacketFrequency  ETV
vector 254  csma802154net.dataCentricNetworkMan  RegisterPacketFrequency  ETV
vector 255  csma802154net.dataCentricNetworkMan  RReplyPacketFrequency  ETV
vector 256  csma802154net.dataCentricNetworkMan  AODVDataPacketFrequency  ETV
vector 263  csma802154net.dataCentricNetworkMan  pendingRegistrationVector  ETV
vector 262  csma802154net.dataCentricNetworkMan  pendingRREQVector  ETV
vector 260  csma802154net.dataCentricNetworkMan  PendingDataPacketsVector  ETV
vector 283  csma802154net.fixhost[19].udpApp  "End-to-end delay"  ETV
vector 248  csma802154net.dataCentricNetworkMan  dataPacketE2EDelay  ETV
vector 288  csma802154net.fixhost[24].udpApp  "End-to-end delay"  ETV
vector 289  csma802154net.fixhost[25].udpApp  "End-to-end delay"  ETV
vector 279  csma802154net.fixhost[15].udpApp  "End-to-end delay"  ETV
vector 280  csma802154net.fixhost[16].udpApp  "End-to-end delay"  ETV
vector 285  csma802154net.fixhost[21].udpApp  "End-to-end delay"  ETV
vector 269  csma802154net.fixhost[5].udpApp  "End-to-end delay"  ETV
vector 270  csma802154net.fixhost[6].udpApp  "End-to-end delay"  ETV
vector 274  csma802154net.fixhost[10].udpApp  "End-to-end delay"  ETV
vector 265  csma802154net.fixhost[1].udpApp  "End-to-end delay"  ETV
vector 266  csma802154net.fixhost[2].udpApp  "End-to-end delay"  ETV
248	360105	70.037676064328	0.037676064328
248	360723	70.047164084277	0.047164084277
248	361337	70.053844109132	0.053844109132
248	362421	71.012156033836	0.012156033836
248	363027	71.021036061585	0.021036061585
248	363338	71.026084070721	0.026084070721
248	366336	72.035076078178	0.035076078178
248	367285	72.063620103958	0.063620103958
248	368278	72.076660140743	0.076660140743
248	370475	73.026436083967	0.026436083967
248	371400	73.053244091991	0.053244091991
248	446891	670.027716084281	0.027716084281
248	447206	670.03241206433	0.03241206433
248	447844	670.056404109134	0.056404109134
248	448928	671.011196033836	0.011196033836
248	449527	671.020076070721	0.020076070721
248	449833	671.023204061585	0.023204061585
248	452510	672.030524078178	0.030524078178
248	453324	672.039444103958	0.039444103958
248	454645	672.067700140742	0.067700140742
248	456834	673.024836083966	0.024836083966
248	457440	673.04876409199	0.04876409199
248	533113	1270.028604084281	0.028604084281
248	533421	1270.030556109135	0.030556109135
248	533752	1270.04834006433	0.04834006433
248	534841	1271.013436033836	0.013436033836
248	535447	1271.022316061584	0.022316061584
248	535758	1271.02736407072	0.02736407072
248	538427	1272.031556078178	0.031556078178
248	539223	1272.038164103957	0.038164103957
248	540221	1272.067452140743	0.067452140743
248	542284	1273.027076083967	0.027076083967
248	542885	1273.03468409199	0.03468409199
248	618314	1870.025196064328	0.025196064328
248	618635	1870.027396084278	0.027396084278
248	619249	1870.037524109133	0.037524109133
248	620333	1871.013116033836	0.013116033836
248	620932	1871.021356070721	0.021356070721
248	621239	1871.026404061585	0.026404061585
248	623619	1872.027964078177	0.027964078177
248	624927	1872.041860103958	0.041860103958
248	625598	1872.052660140743	0.052660140743
248	627794	1873.023236083967	0.023236083967
248	628723	1873.055412091991	0.055412091991
248	704405	2470.03735606433	0.03735606433
248	705022	2470.063124109133	0.063124109133
248	705337	2470.06693208428	0.06693208428
248	706404	2471.012796033835	0.012796033835
248	706999	2471.02007607072	0.02007607072
248	707305	2471.022956061584	0.022956061584
248	710165	2472.030204078178	0.030204078178
248	711436	2472.043204114527	0.043204114527
248	711769	2472.056652103956	0.056652103956
248	714461	2473.031836108731	0.031836108731
248	715229	2473.058892123625	0.058892123625
248	790305	3070.02103606433	0.02103606433
248	791241	3070.031764109134	0.031764109134
248	791559	3070.04478008428	0.04478008428
248	792626	3071.012796033836	0.012796033836
248	793235	3071.022956061585	0.022956061585
248	793540	3071.024804070721	0.024804070721
248	796204	3072.030556103958	0.030556103958
248	797286	3072.060924078178	0.060924078178
248	798594	3072.093620140743	0.093620140743
248	800784	3073.025476083967	0.025476083967
248	801390	3073.048764091991	0.048764091991
248	876824	3670.02544406433	0.02544406433
248	877148	3670.02835608428	0.02835608428
248	877762	3670.039372109133	0.039372109133
248	878847	3671.017276033836	0.017276033836
248	879448	3671.025516070721	0.025516070721
248	879752	3671.027684061585	0.027684061585
248	882604	3672.033436103958	0.033436103958
248	882929	3672.038700078178	0.038700078178
248	884227	3672.064644140743	0.064644140743
248	886588	3673.028676083966	0.028676083966
248	886891	3673.031484091988	0.031484091988
248	961964	4270.02519606433	0.02519606433
248	962586	4270.036604084278	0.036604084278
248	963196	4270.04328410913	0.04328410913
248	964280	4271.013116033836	0.013116033836
248	964878	4271.022316070721	0.022316070721
248	965181	4271.024556061584	0.024556061584
248	967958	4272.032196078177	0.032196078177
248	968362	4272.035604103957	0.035604103957
248	969661	4272.073140140742	0.073140140742
248	971790	4273.028036083967	0.028036083967
248	972469	4273.05829209199	0.05829209199
248	1047847	4870.025124064329	0.025124064329
248	1048477	4870.03084408428	0.03084408428
248	1048784	4870.033612109133	0.033612109133
248	1049868	4871.013116033836	0.013116033836
248	1050467	4871.020716070721	0.020716070721
248	1050773	4871.023844061585	0.023844061585
248	1053443	4872.028996078178	0.028996078178
248	1054442	4872.040724103958	0.040724103958
248	1055114	4872.056572140743	0.056572140743
248	1057478	4873.027676108731	0.027676108731
248	1057781	4873.032724123625	0.032724123625
248	1133215	5470.02679606433	0.02679606433
248	1133849	5470.039092084279	0.039092084279
248	1134158	5470.042892109133	0.042892109133
248	1135242	5471.013436033836	0.013436033836
248	1135841	5471.022316070721	0.022316070721
248	1136148	5471.027044061585	0.027044061585
248	1139800	5472.040004140742	0.040004140742
248	1140453	5472.062020103955	0.062020103955
248	1141090	5472.072300078176	0.072300078176
248	1143459	5473.027676108731	0.027676108731
248	1143762	5473.031516123625	0.031516123625
248	1219138	6070.026404064331	0.026404064331
248	1220392	6070.059532109135	0.059532109135
248	1220708	6070.067180084281	0.067180084281
248	1221775	6071.010876033836	0.010876033836
248	1222372	6071.019116070721	0.019116070721
248	1222676	6071.021356061585	0.021356061585
248	1225460	6072.031236078178	0.031236078178
248	1226327	6072.056972103958	0.056972103958
248	1227625	6072.079220140742	0.079220140742
248	1229815	6073.026756083967	0.026756083967
248	1230422	6073.051004091991	0.051004091991
248	1305495	6670.02295606433	0.02295606433
248	1306113	6670.032124084279	0.032124084279
248	1306727	6670.040404109134	0.040404109134
248	1307811	6671.013436033836	0.013436033836
248	1308410	6671.021036070721	0.021036070721
248	1308716	6671.024484061585	0.024484061585
248	1311068	6672.023556078177	0.023556078177
248	1311810	6672.032724103957	0.032724103957
248	1313034	6672.046652140742	0.046652140742
248	1315096	6673.023556083966	0.023556083966
248	1315696	6673.02860409199	0.02860409199
248	1390829	7270.021676064329	0.021676064329
248	1391447	7270.031804084278	0.031804084278
248	1392060	7270.039124109132	0.039124109132
248	1393144	7271.012476033836	0.012476033836
248	1393739	7271.021036070721	0.021036070721
248	1394045	7271.023916061584	0.023916061584
248	1396232	7272.025796078176	0.025796078176
248	1397219	7272.054484103957	0.054484103957
248	1398513	7272.070012140741	0.070012140741
248	1400575	7273.024516083967	0.024516083967
248	1401177	7273.030844091991	0.030844091991
251	473	1.005	1
251	483	1.01	0
251	903	1.017783243591	26
251	1257	1.022783243591	32
251	1805	1.027783243591	31
251	2828	1.032783243591	80
251	3726	1.037783243591	32
251	4763	1.042783243591	75
251	5743	1.047783243591	35
251	6571	1.052783243591	26
251	7386	1.057783243591	46
251	7868	1.062783243591	46
251	8487	1.067783243591	48
251	8799	1.072783243591	23
251	9028	1.077783243591	21
251	9545	1.082783243591	54
251	9710	1.087783243591	22
251	9780	1.092783243591	0
251	10265	1.097817110649	60
251	10732	1.102817110649	29
251	11011	1.107817110649	18
251	11240	1.112817110649	21
251	11310	1.117817110649	0
251	11475	1.123580928303	22
251	11476	1.128580928303	0
251	11720	1.13834479623	24
251	11721	1.14334479623	0
251	17226	43.505	30
251	18147	43.51	0
251	19185	43.515	0
251	20015	43.52	0
251	20646	43.525	0
251	21302	43.53	0
251	22011	43.535	0
251	22731	43.54	0
251	23556	43.546795457947	0
251	24273	43.551795457947	0
251	24861	43.556795457947	0
251	25943	43.566206102084	0
251	26699	43.571206102084	0
251	27536	43.57900437987	0
251	27913	43.58400437987	0
251	28664	43.589333885895	0
251	29049	43.594333885895	0
251	29574	43.599333885895	0
251	30352	43.604333885895	0
251	30795	43.609333885895	0
251	31438	43.6163933131	0
251	32141	43.6213933131	0
251	32671	43.6263933131	0
251	33157	43.6313933131	0
251	33863	43.6363933131	0
251	34596	43.6413933131	0
251	35649	43.652530964492	0
251	35955	43.657530964492	0
251	36744	43.663305896835	0
251	37397	43.668305896835	0
251	37932	43.673305896835	0
251	38543	43.678305896835	0
251	39123	43.683305896835	0
251	40025	43.689536464014	0
251	40747	43.694536464014	0
251	41336	43.699536464014	0
251	42075	43.704536464014	0
251	42609	43.709536464014	0
251	43372	43.714536464014	0
251	43939	43.719536464014	0
251	44385	43.724536464014	0
251	44457	43.729536464014	0
251	45006	43.734536464014	0
251	45431	43.739536464014	0
251	45723	43.744536464014	0
251	46175	43.752813626649	0
251	46481	43.757813626649	0
251	46711	43.762813626649	0
251	47146	43.767813626649	0
251	47909	43.781468388055	0
251	48380	43.786468388055	0
251	48673	43.791468388055	0
251	49526	43.817224241216	0
251	49758	43.822224241216	0
251	49759	43.827224241216	0
251	49893	44.505	1
251	50112	44.51	12
251	50745	44.515	0
251	51584	44.52	0
251	52007	44.525	0
251	52555	44.53	0
251	52692	44.535	0
251	53446	44.541659493885	0
251	53875	44.546659493885	0
251	54105	44.554137686325	0
251	54585	44.559137686325	0
251	55454	44.570191590377	0
251	55677	44.575191590377	0
251	55970	44.580191590377	0
251	56474	44.585191590377	0
251	56830	44.590191590377	0
251	58610	44.613571196111	0
251	58965	44.618571196111	0
251	59484	44.624171173662	0
251	59754	44.629171173662	0
251	60489	44.647310203456	0
251	61056	44.652310203456	0
251	61472	44.657310203456	0
251	62055	44.664482598473	0
251	62356	44.669482598473	0
251	62984	44.674482598473	0
251	63635	44.683970574296	0
251	63636	44.688970574296	0
251	64193	44.700512893117	0
251	64459	44.705512893117	0
251	64460	44.710512893117	0
251	65084	44.72689948495	0
251	65309	44.73189948495	0
251	65310	44.73689948495	0
251	65723	44.753227488886	0
251	65993	44.758227488886	0
251	65994	44.763227488886	0
251	65996	44.775317603148	0
251	65997	44.780317603148	0
251	66131	45.505	1
251	66503	45.51	28
251	67540	45.515	0
251	68583	45.52	0
251	69304	45.525	0
251	70450	45.533510892256	0
251	71061	45.538510892256	0
251	71832	45.543797659108	0
251	72522	45.548797659108	0
251	73153	45.553797659108	0
251	74062	45.558797659108	0
251	74732	45.563797659108	0
251	75183	45.568797659108	0
251	75924	45.574840696939	0
251	76619	45.579840696939	0
251	77463	45.584840696939	0
251	78300	45.589840696939	0
251	79258	45.594840696939	0
251	79797	45.599840696939	0
251	80514	45.604840696939	0
251	80886	45.609840696939	0
251	81350	45.614840696939	0
251	81722	45.619840696939	0
251	82302	45.624874386984	0
251	83033	45.629874386984	0
251	83600	45.634874386984	0
251	85095	45.646725271317	0
251	85550	45.651725271317	0
251	86832	45.663713112266	0
251	87468	45.668713112266	0
251	87925	45.673713112266	0
251	88449	45.678713112266	0
251	90239	45.695916385557	0
251	90673	45.700916385557	0
251	91352	45.708813034114	0
251	91954	45.713813034114	0
251	92405	45.718813034114	0
251	93054	45.723813034114	0
251	93573	45.728813034114	0
251	94247	45.733813034114	0
251	94768	45.738813034114	0
251	95506	45.743813034114	0
251	96095	45.748813034114	0
251	96456	45.753813034114	0
251	97760	45.764036191574	0
251	98198	45.769036191574	0
251	98805	45.781621065036	0
251	99450	45.786621065036	0
251	99539	45.791621065036	0
251	99844	45.796621065036	0
251	100012	45.801621065036	0
251	101748	45.826903305939	0
251	102151	45.831903305939	0
251	102307	45.836903305939	0
251	102608	45.841903305939	0
251	102761	45.846903305939	0
251	103060	45.886510305149	0
251	103061	45.891510305149	0
251	103195	46.505	1
251	103368	46.51	9
251	103787	46.515	0
251	104365	46.52	0
251	104733	46.525	0
251	105168	46.53	0
251	105611	46.535	0
251	105909	46.54	0
251	106348	46.545	0
251	106706	46.55	0
251	106712	46.555	0
251	107889	46.58138496329	0
251	108042	46.58638496329	0
251	111091	46.645398116351	0
251	111587	46.650398116351	0
251	111793	46.65568179828	0
251	111794	46.66068179828	0
251	112668	46.684793997974	0
251	112669	46.689793997974	0
251	112949	46.703401550838	0
251	112950	46.708401550838	0
251	113230	46.742945574002	0
251	113231	46.747945574002	0
251	113368	47.505	1
251	113742	47.51	25
251	115017	47.515	0
251	115946	47.52	0
251	116734	47.525	0
251	117355	47.53	0
251	118044	47.535	0
251	118727	47.54	0
251	119490	47.545	0
251	120560	47.554263312379	0
251	121053	47.559263312379	0
251	121292	47.564263312379	0
251	121927	47.569263312379	0
251	122599	47.574263312379	0
251	123294	47.579263312379	0
251	123911	47.584878658193	0
251	124312	47.589878658193	0
251	124802	47.594878658193	0
251	125603	47.599878658193	0
251	126422	47.608693917034	0
251	126806	47.613693917034	0
251	127476	47.618693917034	0
251	128029	47.623693917034	0
251	129342	47.634661957073	0
251	129740	47.639661957073	0
251	130498	47.644661957073	0
251	130954	47.649661957073	0
251	131501	47.654661957073	0
251	132046	47.659661957073	0
251	132617	47.664661957073	0
251	133305	47.669661957073	0
251	133710	47.674661957073	0
251	134238	47.679661957073	0
251	134822	47.690467509985	0
251	135261	47.695467509985	0
251	135735	47.700467509985	0
251	135805	47.705467509985	0
251	136402	47.710482053241	0
251	136491	47.715482053241	0
251	137255	47.726637949855	0
251	137257	47.731637949855	0
251	137876	47.739853942634	0
251	137953	47.744853942634	0
251	138867	47.763310043133	0
251	139122	47.768310043133	0
251	139422	47.773310043133	0
251	139735	47.780551678352	0
251	139805	47.785551678352	0
251	140350	47.791620564617	0
251	140569	47.796620564617	0
251	141093	47.820807662762	0
251	141320	47.825807662762	0
251	141565	47.831830859922	0
251	141566	47.836830859922	0
251	141802	47.846162337272	0
251	141865	47.851162337272	0
251	142262	47.874764351782	0
251	142495	47.879764351782	0
251	142496	47.884764351782	0
251	142811	47.899214891906	0
251	142812	47.904214891906	0
251	142949	48.505	1
251	143240	48.51	16
251	144127	48.515	0
251	144986	48.52	0
251	145228	48.525	0
251	145963	48.53	0
251	146135	48.535	0
251	146661	48.54	0
251	147256	48.545	0
251	147770	48.55	0
251	148362	48.555	0
251	148682	48.56	0
251	149345	48.56598965955	0
251	149651	48.57098965955	0
251	150108	48.57598965955	0
251	150390	48.58098965955	0
251	151007	48.587079597705	0
251	151677	48.592079597705	0
251	152237	48.597079597705	0
251	153690	48.613393910372	0
251	154016	48.618393910372	0
251	154630	48.623652640282	0
251	155171	48.628652640282	0
251	155798	48.633652640282	0
251	156095	48.641200225866	0
251	156250	48.646200225866	0
251	156551	48.651380346236	0
251	156943	48.656380346236	0
251	157371	48.661380346236	0
251	157730	48.67257515088	0
251	157817	48.67757515088	0
251	158498	48.68549898392	0
251	158891	48.69049898392	0
251	158962	48.69549898392	0
251	159778	48.721004364379	0
251	159924	48.726004364379	0
251	160356	48.733882286056	0
251	160710	48.738882286056	0
251	160933	48.743882286056	0
251	161808	48.761979012225	0
251	161809	48.766979012225	0
251	161966	49.505	1
251	161973	49.51	0
251	163023	49.518883405368	24
251	163972	49.523883405368	0
251	164922	49.528883405368	0
251	165504	49.533883405368	0
251	166189	49.538883405368	0
251	166967	49.543883405368	0
251	167441	49.548883405368	0
251	168303	49.55500233202	0
251	169020	49.56000233202	0
251	169851	49.566245938312	0
251	170235	49.571245938312	0
251	170740	49.576245938312	0
251	172475	49.588336063878	0
251	173171	49.593336063878	0
251	173786	49.598336063878	0
251	174589	49.603336063878	0
251	175233	49.608336063878	0
251	175842	49.613336063878	0
251	177554	49.62981688504	0
251	178213	49.63481688504	0
251	178789	49.63981688504	0
251	179607	49.64481688504	0
251	180449	49.64981688504	0
251	180955	49.65481688504	0
251	181700	49.65981688504	0
251	182270	49.66481688504	0
251	182716	49.66981688504	0
251	183315	49.67481688504	0
251	184339	49.67981688504	0
251	184950	49.68481688504	0
251	185594	49.690557374927	0
251	185995	49.695557374927	0
251	186620	49.700557374927	0
251	187313	49.705557374927	0
251	188180	49.711077401315	0
251	188634	49.716077401315	0
251	188894	49.721077401315	0
251	189285	49.726077401315	0
251	190055	49.73132572154	0
251	190147	49.73632572154	0
251	190837	49.745696891751	0
251	191080	49.750696891751	0
251	191474	49.755696891751	0
251	191856	49.760696891751	0
251	191926	49.765696891751	0
251	192176	49.771792650803	0
251	192246	49.776792650803	0
251	193562	49.813961610822	0
251	193632	49.818961610822	0
251	194517	49.845188601003	0
251	194518	49.850188601003	0
251	194901	49.874117770653	0
251	195122	49.879117770653	0
251	195532	50.505	27
251	196312	50.51	0
251	197196	50.515	0
251	198238	50.52	0
251	198945	50.525	0
251	199951	50.53	0
251	200925	50.535	0
251	201627	50.54	0
251	202510	50.545	0
251	203133	50.55	0
251	204031	50.555	0
251	204666	50.56	0
251	205217	50.565	0
251	205614	50.57	0
251	206684	50.579333009788	0
251	207448	50.584333009788	0
251	208150	50.589333009788	0
251	208864	50.594333009788	0
251	209430	50.599333009788	0
251	210326	50.606969753762	0
251	210867	50.611969753762	0
251	211333	50.616969753762	0
251	212097	50.622837493921	0
251	212565	50.627837493921	0
251	213163	50.632837493921	0
251	213713	50.637837493921	0
251	214113	50.642837493921	0
251	214618	50.647837493921	0
251	215258	50.652837493921	0
251	215587	50.657837493921	0
251	216171	50.662837493921	0
251	217374	50.678258364994	0
251	217794	50.683258364994	0
251	218599	50.688258364994	0
251	219175	50.693258364994	0
251	219253	50.698258364994	0
251	219905	50.703855046237	0
251	220608	50.708855046237	0
251	221068	50.713855046237	0
251	222288	50.725676222267	0
251	222607	50.730676222267	0
251	222682	50.735676222267	0
251	222992	50.740676222267	0
251	223249	50.745676222267	0
251	223941	50.752473752922	0
251	224204	50.757473752922	0
251	224208	50.762473752922	0
251	224844	50.769462143402	0
251	224845	50.774462143402	0
251	225169	50.824550179627	0
251	225170	50.829550179627	0
251	225807	50.842974211851	0
251	226026	50.847974211851	0
251	226318	50.852974211851	0
251	226546	51.505	1
251	226553	51.51	0
251	227411	51.519648166771	18
251	228248	51.524648166771	0
251	229177	51.529648166771	0
251	229860	51.534648166771	0
251	230302	51.539648166771	0
251	231326	51.544648166771	0
251	231914	51.549648166771	0
251	232324	51.554648166771	0
251	232977	51.56096177478	0
251	233864	51.56596177478	0
251	234582	51.57096177478	0
251	235071	51.57596177478	0
251	235689	51.58096177478	0
251	236454	51.58596177478	0
251	236924	51.59096177478	0
251	237629	51.597004645392	0
251	238395	51.602004645392	0
251	238938	51.607004645392	0
251	239705	51.612004645392	0
251	240156	51.617004645392	0
251	240930	51.622004645392	0
251	241488	51.627004645392	0
251	241808	51.632004645392	0
251	242105	51.637004645392	0
251	242681	51.648618477414	0
251	243239	51.653618477414	0
251	244068	51.662289195162	0
251	244368	51.667289195162	0
251	245091	51.676695337545	0
251	245565	51.681695337545	0
251	246603	51.703087344716	0
251	247306	51.708087344716	0
251	247763	51.713087344716	0
251	247921	51.718087344716	0
251	248306	51.726918278395	0
251	248902	51.731918278395	0
251	249310	51.736918278395	0
251	250248	51.749093845192	0
251	250655	51.754093845192	0
251	250971	51.759093845192	0
251	251490	51.764093845192	0
251	251589	51.769093845192	0
251	252570	51.787235789858	0
251	252571	51.792235789858	0
251	252714	52.505	1
251	252784	52.51	0
251	253443	52.515518636758	10
251	253938	52.520518636758	0
251	254484	52.525518636758	0
251	254942	52.530518636758	0
251	255379	52.535518636758	0
251	256021	52.542917193607	0
251	256570	52.547917193607	0
251	256872	52.552917193607	0
251	257325	52.557917193607	0
251	257553	52.562917193607	0
251	258777	52.58881616899	0
251	259147	52.59381616899	0
251	259908	52.605988369366	0
251	260135	52.610988369366	0
251	260595	52.620747716827	0
251	260745	52.625747716827	0
251	261686	52.639347787199	0
251	261761	52.644347787199	0
251	262793	52.671480041353	0
251	263082	52.676480041353	0
251	263850	52.697264060858	0
251	263855	52.702264060858	0
251	264680	52.712329197357	0
251	265024	52.717329197357	0
251	265410	52.722329197357	0
251	266178	52.729131846525	0
251	266474	52.734131846525	0
251	266479	52.752023543694	0
251	266801	52.757023543694	0
251	266802	52.762023543694	0
251	266964	53.505	1
251	267360	53.51	24
251	268470	53.515	0
251	269333	53.52	0
251	269766	53.525	0
251	270555	53.53	0
251	270892	53.535	0
251	271632	53.54	0
251	272471	53.54818359131	0
251	272716	53.55318359131	0
251	273221	53.558589362782	0
251	273721	53.563589362782	0
251	274629	53.571533298775	0
251	275191	53.576533298775	0
251	276182	53.583411356944	0
251	276944	53.588411356944	0
251	277781	53.593411356944	0
251	278402	53.598411356944	0
251	278734	53.603411356944	0
251	279441	53.611001528302	0
251	279847	53.616001528302	0
251	280342	53.621001528302	0
251	280892	53.626001528302	0
251	281215	53.631001528302	0
251	281625	53.636001528302	0
251	284008	53.658774461226	0
251	284737	53.663774461226	0
251	285735	53.674586395999	0
251	286351	53.679586395999	0
251	287240	53.687289806363	0
251	287560	53.692289806363	0
251	288091	53.697371285669	0
251	288387	53.702371285669	0
251	288991	53.707371285669	0
251	289394	53.712371285669	0
251	289989	53.717371285669	0
251	291045	53.726400753987	0
251	291728	53.731400753987	0
251	293375	53.750996219607	0
251	294122	53.755996219607	0
251	294731	53.760996219607	0
251	296043	53.774450418897	0
251	296521	53.779450418897	0
251	297078	53.784450418897	0
251	297737	53.789450418897	0
251	298287	53.794450418897	0
251	298621	53.799450418897	0
251	299115	53.807710952763	0
251	299263	53.812710952763	0
251	299879	53.817710952763	0
251	300370	53.822710952763	0
251	300615	53.827710952763	0
251	301459	53.847482532808	0
251	301534	53.852482532808	0
251	302123	53.858937556785	0
251	302432	53.863937556785	0
251	302912	53.871080588174	0
251	303230	53.876080588174	0
251	303395	53.881080588174	0
251	303562	53.886080588174	0
251	303868	53.891080588174	0
251	304344	53.917088519526	0
251	304345	53.922088519526	0
251	304495	54.505	1
251	304871	54.51	33
251	305862	54.515	0
251	307098	54.52	0
251	307893	54.525	0
251	308631	54.53	0
251	309132	54.535	0
251	311070	54.547484950029	0
251	311753	54.552484950029	0
251	312642	54.557484950029	0
251	313065	54.562484950029	0
251	313635	54.567484950029	0
251	314016	54.572484950029	0
251	314758	54.577484950029	0
251	315551	54.582484950029	0
251	316523	54.588029940462	0
251	316934	54.593029940462	0
251	318926	54.608617311285	0
251	319836	54.613617311285	0
251	320974	54.624928228223	0
251	321468	54.629928228223	0
251	322528	54.637872979862	0
251	323297	54.642872979862	0
251	324818	54.65568995122	0
251	325378	54.66068995122	0
251	326338	54.667590532275	0
251	327185	54.672590532275	0
251	327617	54.677590532275	0
251	328167	54.682590532275	0
251	329354	54.69218995118	0
251	329952	54.69718995118	0
251	330458	54.70218995118	0
251	331194	54.70718995118	0
251	331951	54.71218995118	0
251	332572	54.71718995118	0
251	333097	54.72218995118	0
251	333915	54.72718995118	0
251	334321	54.73218995118	0
251	334991	54.73718995118	0
251	335704	54.74218995118	0
251	336505	54.74718995118	0
251	337525	54.75218995118	0
251	338102	54.75718995118	0
251	338661	54.76218995118	0
251	339413	54.76718995118	0
251	339718	54.77218995118	0
251	341115	54.783877459785	0
251	341593	54.788877459785	0
251	342384	54.793877459785	0
251	342969	54.798877459785	0
251	343588	54.803877459785	0
251	345430	54.817357652276	0
251	345765	54.822357652276	0
251	346252	54.827357652276	0
251	346919	54.834090168148	0
251	347423	54.839090168148	0
251	348015	54.844090168148	0
251	348358	54.849090168148	0
251	349290	54.856483472312	0
251	349935	54.861483472312	0
251	350289	54.866483472312	0
251	350757	54.871483472312	0
251	352395	54.891182837075	0
251	352718	54.896182837075	0
251	352993	54.90119956549	0
251	353404	54.90619956549	0
251	354140	54.911391581219	0
251	354469	54.916391581219	0
251	354470	54.921391581219	0
251	354880	54.930351452535	0
251	355485	54.935351452535	0
251	355492	54.940351452535	0
251	356003	54.948455480898	0
251	356237	54.953455480898	0
251	356516	54.95904691161	0
251	356517	54.96404691161	0
251	358979	70.00501	0
251	358980	70.01001	0
251	359550	70.028396022511	0
251	359696	70.033396022511	0
251	360274	70.038556048614	0
251	360492	70.043556048614	0
251	360873	70.048556048614	0
251	361245	70.053556048614	0
251	361501	70.058556048614	0
251	361502	70.063556048614	0
251	361950	71.00501	0
251	362275	71.01001	0
251	362572	71.01501	0
251	362940	71.02001	0
251	363258	71.02501	0
251	363489	71.03001	0
251	363490	71.03501	0
251	363968	72.00501	0
251	364291	72.01001	0
251	364610	72.01501	0
251	364910	72.02001	0
251	365292	72.02501	0
251	365605	72.03001	0
251	366241	72.03501	0
251	366778	72.04001	0
251	366779	72.04501	0
251	367768	72.068620103958	0
251	368108	72.073620103958	0
251	368430	72.078620103958	0
251	368431	72.083620103958	0
251	368895	73.00501	0
251	369220	73.01001	0
251	369535	73.01501	0
251	369840	73.02001	0
251	370306	73.02501	0
251	370621	73.03001	0
251	370622	73.03501	0
251	371468	73.053484077784	0
251	371560	73.058484077784	0
251	445347	670.00501	0
251	445670	670.01001	0
251	445994	670.01501	0
251	446304	670.02001	0
251	446605	670.02501	0
251	447044	670.03001	0
251	447375	670.03501	0
251	447376	670.04001	0
251	447752	670.056324102045	0
251	448008	670.061324102045	0
251	448009	670.066324102045	0
251	448460	671.00501	0
251	448848	671.01001	0
251	449142	671.01501	0
251	449447	671.02001	0
251	449995	671.02501	0
251	449996	671.03001	0
251	450474	672.00501	0
251	450797	672.01001	0
251	451185	672.01501	0
251	451486	672.02001	0
251	452042	672.02501	0
251	452415	672.03001	0
251	453147	672.03501	0
251	453482	672.04001	0
251	453486	672.04501	0
251	454475	672.064460117576	0
251	454797	672.069460117576	0
251	454798	672.074460117576	0
251	455265	673.00501	0
251	455656	673.01001	0
251	455971	673.01501	0
251	456342	673.02001	0
251	456835	673.02501	0
251	456981	673.03001	0
251	457599	673.049644077783	0
251	457600	673.054644077783	0
251	531387	1270.00501	0
251	531713	1270.01001	0
251	532034	1270.01501	0
251	532347	1270.02001	0
251	532722	1270.02501	0
251	533329	1270.03001	0
251	533586	1270.03501	0
251	533587	1270.04001	0
251	533921	1270.05334006433	0
251	533922	1270.05834006433	0
251	534219	1271.00501	0
251	534549	1271.01001	0
251	534986	1271.01501	0
251	535290	1271.02001	0
251	535612	1271.02501	0
251	535909	1271.03001	0
251	535910	1271.03501	0
251	536221	1272.00501	0
251	536557	1272.01001	0
251	537027	1272.01501	0
251	537327	1272.02001	0
251	537709	1272.02501	0
251	538260	1272.03001	0
251	539049	1272.03501	0
251	539384	1272.04001	0
251	539385	1272.04501	0
251	540051	1272.063572117577	0
251	540373	1272.068572117577	0
251	540374	1272.073572117577	0
251	540838	1273.00501	0
251	541166	1273.01001	0
251	541478	1273.01501	0
251	541780	1273.02001	0
251	542112	1273.02501	0
251	542644	1273.03001	0
251	542953	1273.03501	0
251	543045	1273.04001	0
251	616892	1870.00501	0
251	617221	1870.01001	0
251	617539	1870.01501	0
251	617849	1870.02001	0
251	618218	1870.02501	0
251	618782	1870.03001	0
251	619091	1870.03501	0
251	619413	1870.04001	0
251	619414	1870.04501	0
251	619778	1871.00501	0
251	620184	1871.01001	0
251	620481	1871.01501	0
251	620788	1871.02001	0
251	621089	1871.02501	0
251	621401	1871.03001	0
251	621402	1871.03501	0
251	621713	1872.00501	0
251	622200	1872.01001	0
251	622528	1872.01501	0
251	622892	1872.02001	0
251	623452	1872.02501	0
251	623996	1872.03001	0
251	624410	1872.03501	0
251	624755	1872.04001	0
251	625088	1872.04501	0
251	625428	1872.05001	0
251	625750	1872.05501	0
251	625751	1872.06001	0
251	626215	1873.00501	0
251	626543	1873.01001	0
251	626924	1873.01501	0
251	627546	1873.02001	0
251	627940	1873.02501	0
251	627941	1873.03001	0
251	628791	1873.055652077784	0
251	628883	1873.060652077784	0
251	702670	2470.00501	0
251	702671	2470.01001	0
251	703066	2470.019756022512	0
251	703387	2470.024756022512	0
251	703697	2470.029756022512	0
251	703997	2470.034756022512	0
251	704858	2470.039756022512	0
251	704859	2470.044756022512	0
251	705484	2470.068124109133	0
251	705485	2470.073124109133	0
251	705933	2471.00501	0
251	706252	2471.01001	0
251	706555	2471.01501	0
251	706919	2471.02001	0
251	707467	2471.02501	0
251	707468	2471.03001	0
251	707943	2472.00501	0
251	708266	2472.01001	0
251	708591	2472.01501	0
251	708958	2472.02001	0
251	709517	2472.02501	0
251	710075	2472.03001	0
251	710923	2472.03501	0
251	711266	2472.04001	0
251	711588	2472.04501	0
251	711589	2472.05001	0
251	712248	2472.061652103956	0
251	712249	2472.066652103956	0
251	712547	2473.00501	0
251	713035	2473.01001	0
251	713353	2473.01501	0
251	713655	2473.02001	0
251	713961	2473.02501	0
251	714289	2473.03001	0
251	714753	2473.03501	0