version 2
run AODVScenario_1f-35-20121121-11:48:25-3056
attr configname AODVScenario_1f
attr datetime 20121121-11:48:25
attr experiment AODVScenario_1f
attr inifile AODV.ini
attr iterationvars $numNodes=85
attr iterationvars2 "$numNodes=85, $repetition=0"
attr measurement $numNodes=85
attr network csma802154net
attr numNodes 85
attr processid 3056
attr repetition 0
attr replication #0
attr resultdir results
attr runnumber 35
attr seedset 35

vector 351  csma802154net.dataCentricNetworkMan  RREQPacketFrequency  ETV
vector 352  csma802154net.dataCentricNetworkMan  RERRPacketFrequency  ETV
vector 353  csma802154net.dataCentricNetworkMan  DiscoveryPacketFrequency  ETV
vector 354  csma802154net.dataCentricNetworkMan  RegisterPacketFrequency  ETV
vector 355  csma802154net.dataCentricNetworkMan  RReplyPacketFrequency  ETV
vector 356  csma802154net.dataCentricNetworkMan  AODVDataPacketFrequency  ETV
vector 363  csma802154net.dataCentricNetworkMan  pendingRegistrationVector  ETV
vector 362  csma802154net.dataCentricNetworkMan  pendingRREQVector  ETV
vector 360  csma802154net.dataCentricNetworkMan  PendingDataPacketsVector  ETV
vector 370  csma802154net.fixhost[6].udpApp  "End-to-end delay"  ETV
vector 348  csma802154net.dataCentricNetworkMan  dataPacketE2EDelay  ETV
vector 371  csma802154net.fixhost[7].udpApp  "End-to-end delay"  ETV
vector 373  csma802154net.fixhost[9].udpApp  "End-to-end delay"  ETV
vector 367  csma802154net.fixhost[3].udpApp  "End-to-end delay"  ETV
vector 368  csma802154net.fixhost[4].udpApp  "End-to-end delay"  ETV
vector 379  csma802154net.fixhost[15].udpApp  "End-to-end delay"  ETV
vector 385  csma802154net.fixhost[21].udpApp  "End-to-end delay"  ETV
vector 381  csma802154net.fixhost[17].udpApp  "End-to-end delay"  ETV
vector 374  csma802154net.fixhost[10].udpApp  "End-to-end delay"  ETV
vector 372  csma802154net.fixhost[8].udpApp  "End-to-end delay"  ETV
vector 382  csma802154net.fixhost[18].udpApp  "End-to-end delay"  ETV
348	666077	70.016596046236	0.016596046236
348	666511	70.019084059484	0.019084059484
348	666946	70.025124080446	0.025124080446
348	670134	71.037532062569	0.037532062569
348	670574	71.071836098542	0.071836098542
348	673331	72.02455606814	0.02455606814
348	675000	72.039404117217	0.039404117217
348	675833	72.046380082193	0.046380082193
348	679911	73.044596145732	0.044596145732
348	680825	73.073940075839	0.073940075839
348	681281	73.080940089291	0.080940089291
348	787069	670.015316046237	0.015316046237
348	787507	670.021644059484	0.021644059484
348	787941	670.028644080446	0.028644080446
348	790686	671.026724062569	0.026724062569
348	791567	671.038164098543	0.038164098543
348	794753	672.027324082192	0.027324082192
348	795600	672.035604103746	0.035604103746
348	796830	672.046084147771	0.046084147771
348	799217	673.025196075838	0.025196075838
348	800758	673.036244119215	0.036244119215
348	801866	673.045124151601	0.045124151601
348	908090	1270.014356059484	0.014356059484
348	908530	1270.016524046237	0.016524046237
348	908964	1270.018796080446	0.018796080446
348	911708	1271.02640406257	0.02640406257
348	912584	1271.033116098543	0.033116098543
348	914928	1272.02231606814	0.02231606814
348	916593	1272.033084082193	0.033084082193
348	917829	1272.043564117217	0.043564117217
348	921103	1273.031204075839	0.031204075839
348	922627	1273.041324145188	0.041324145188
348	923065	1273.056404119215	0.056404119215
348	1028940	1870.018196059482	0.018196059482
348	1029380	1870.020436046235	0.020436046235
348	1029814	1870.022956080444	0.022956080444
348	1032317	1871.02359606257	0.02359606257
348	1033617	1871.057684098543	0.057684098543
348	1036137	1872.02423606814	0.02423606814
348	1037480	1872.053244082193	0.053244082193
348	1039248	1872.093020117217	0.093020117217
348	1041632	1873.021676075838	0.021676075838
348	1043055	1873.031764119214	0.031764119214
348	1044497	1873.067812145186	0.067812145186
348	1150279	2470.016916059484	0.016916059484
348	1150811	2470.021324046237	0.021324046237
348	1151339	2470.044964080446	0.044964080446
348	1153665	2471.02071606257	0.02071606257
348	1154960	2471.034004098543	0.034004098543
348	1157480	2472.02295606814	0.02295606814
348	1159760	2472.060204117216	0.060204117216
348	1161025	2472.083820082193	0.083820082193
348	1163404	2473.021356075839	0.021356075839
348	1164735	2473.031836119216	0.031836119216
348	1166065	2473.042284145188	0.042284145188
348	1271847	3070.019156059484	0.019156059484
348	1272290	3070.021964046236	0.021964046236
348	1272724	3070.023916080445	0.023916080445
348	1275913	3071.02825206257	0.02825206257
348	1276349	3071.030236098543	0.030236098543
348	1279484	3072.02512406814	0.02512406814
348	1280612	3072.050364082193	0.050364082193
348	1283216	3072.090140117217	0.090140117217
348	1287571	3073.035596178117	0.035596178117
348	1288007	3073.043172145731	0.043172145731
348	1288886	3073.054100075838	0.054100075838
348	1394767	3670.017556059484	0.017556059484
348	1395210	3670.020684046237	0.020684046237
348	1395644	3670.022956080446	0.022956080446
348	1398147	3671.021356062569	0.021356062569
348	1399447	3671.055124098542	0.055124098542
348	1402401	3672.026756082192	0.026756082192
348	1403246	3672.04450006814	0.04450006814
348	1404907	3672.077732117216	0.077732117216
348	1407730	3673.026084075839	0.026084075839
348	1409610	3673.041644145187	0.041644145187
348	1410145	3673.066572119216	0.066572119216
348	1515942	4270.016916046236	0.016916046236
348	1516380	4270.020684059482	0.020684059482
348	1516814	4270.027044080444	0.027044080444
348	1519139	4271.021356062569	0.021356062569
348	1520428	4271.032156098541	0.032156098541
348	1524123	4272.023844068139	0.023844068139
348	1524633	4272.025796082192	0.025796082192
348	1526302	4272.062692117215	0.062692117215
348	1529749	4273.032156119215	0.032156119215
348	1530624	4273.049124075839	0.049124075839
348	1531963	4273.060844145186	0.060844145186
348	1637751	4870.016916046237	0.016916046237
348	1638189	4870.021964059482	0.021964059482
348	1638623	4870.026404080444	0.026404080444
348	1641125	4871.01815606257	0.01815606257
348	1642425	4871.051284098542	0.051284098542
348	1645566	4872.026084068139	0.026084068139
348	1647864	4872.062052117217	0.062052117217
348	1648707	4872.086948082193	0.086948082193
348	1651087	4873.023276075839	0.023276075839
348	1652944	4873.040652119214	0.040652119214
348	1653957	4873.067812145187	0.067812145187
348	1760004	5470.017236046237	0.017236046237
348	1760447	5470.042124059483	0.042124059483
348	1760880	5470.045924080445	0.045924080445
348	1763206	5471.02231606257	0.02231606257
348	1764502	5471.035924098543	0.035924098543
348	1767022	5472.02199606814	0.02199606814
348	1768271	5472.051004082193	0.051004082193
348	1769938	5472.066852117216	0.066852117216
348	1772499	5473.022636075839	0.022636075839
348	1774272	5473.061484145732	0.061484145732
348	1775176	5473.071612178118	0.071612178118
348	1880958	6070.018196059484	0.018196059484
348	1881396	6070.022316080446	0.022316080446
348	1881817	6070.028292046237	0.028292046237
348	1884166	6071.02199606257	0.02199606257
348	1885462	6071.035284098543	0.035284098543
348	1887982	6072.02423606814	0.02423606814
348	1890093	6072.056620082193	0.056620082193
348	1890906	6072.064612117217	0.064612117217
348	1893467	6073.021356075839	0.021356075839
348	1895694	6073.062692145732	0.062692145732
348	1896144	6073.067132178117	0.067132178117
348	2001922	6670.016596059484	0.016596059484
348	2002365	6670.019796046237	0.019796046237
348	2002804	6670.025764080446	0.025764080446
348	2005133	6671.023596062569	0.023596062569
348	2006426	6671.036884098542	0.036884098542
348	2010040	6672.033012082191	0.033012082191
348	2010455	6672.035036103745	0.035036103745
348	2011682	6672.044556147771	0.044556147771
348	2015129	6673.032476119215	0.032476119215
348	2016011	6673.048804075839	0.048804075839
348	2017345	6673.060772145187	0.060772145187
348	2123218	7270.016596046237	0.016596046237
348	2123656	7270.021324059484	0.021324059484
348	2124090	7270.026724080446	0.026724080446
348	2126416	7271.02167606257	0.02167606257
348	2127711	7271.035924098543	0.035924098543
348	2130469	7272.026476068138	0.026476068138
348	2132728	7272.041324117215	0.041324117215
348	2133154	7272.06518808219	0.06518808219
348	2135534	7273.021996075839	0.021996075839
348	2137063	7273.037524119216	0.037524119216
348	2139026	7273.089500145188	0.089500145188
351	673	1.005	1
351	774	1.01	0
351	1084	1.015431696718	32
351	1803	1.020431696718	64
351	2739	1.025431696718	40
351	4211	1.030431696718	78
351	5997	1.035431696718	84
351	7841	1.040431696718	60
351	9599	1.045431696718	90
351	11300	1.050431696718	51
351	12573	1.055431696718	54
351	13657	1.060431696718	52
351	14663	1.065431696718	58
351	15380	1.070431696718	53
351	16332	1.075431696718	66
351	16920	1.080431696718	48
351	17424	1.085431696718	29
351	18169	1.090431696718	46
351	18856	1.095431696718	46
351	19104	1.100431696718	14
351	19462	1.105431696718	18
351	19852	1.110431696718	46
351	19947	1.115431696718	0
351	20567	1.121506896001	50
351	21157	1.126506896001	50
351	21482	1.131506896001	29
351	21662	1.136506896001	20
351	21663	1.141506896001	0
351	22007	1.167368097146	34
351	22008	1.172368097146	0
351	29404	43.505	1
351	29898	43.51	41
351	31641	43.515	0
351	33368	43.52	0
351	35031	43.525	0
351	36409	43.53	0
351	38775	43.545025088698	0
351	39691	43.550025088698	0
351	40684	43.555698380794	0
351	41948	43.560698380794	0
351	42748	43.565698380794	0
351	44160	43.572781703439	0
351	44888	43.577781703439	0
351	46146	43.583692537431	0
351	46939	43.588692537431	0
351	48311	43.59389483996	0
351	49329	43.59889483996	0
351	50268	43.60389483996	0
351	51456	43.60889483996	0
351	52201	43.61389483996	0
351	54767	43.627614439531	0
351	55653	43.632614439531	0
351	57945	43.647141720699	0
351	58346	43.652141720699	0
351	59559	43.657219937252	0
351	60783	43.662219937252	0
351	61507	43.667219937252	0
351	62230	43.672219937252	0
351	63032	43.677219937252	0
351	64329	43.684423921487	0
351	65494	43.689423921487	0
351	66196	43.694423921487	0
351	67504	43.703789303896	0
351	68426	43.708789303896	0
351	69490	43.713789303896	0
351	70080	43.718789303896	0
351	72769	43.731355381768	0
351	73587	43.736355381768	0
351	74591	43.741355381768	0
351	75182	43.746355381768	0
351	76358	43.751355381768	0
351	76982	43.756355381768	0
351	77724	43.761355381768	0
351	78980	43.768918340351	0
351	79426	43.773918340351	0
351	80635	43.778918340351	0
351	81239	43.783918340351	0
351	82511	43.789487937414	0
351	83380	43.794487937414	0
351	84187	43.799487937414	0
351	84803	43.804487937414	0
351	85421	43.809487937414	0
351	85980	43.814487937414	0
351	87100	43.820284809802	0
351	88228	43.825284809802	0
351	89974	43.836565713973	0
351	90510	43.841565713973	0
351	91524	43.847452716016	0
351	92562	43.852452716016	0
351	93208	43.857452716016	0
351	94263	43.862452716016	0
351	94565	43.867452716016	0
351	95180	43.872452716016	0
351	95397	43.877452716016	0
351	96224	43.88425769319	0
351	96650	43.88925769319	0
351	97766	43.896064965891	0
351	98370	43.901064965891	0
351	98686	43.906064965891	0
351	98995	43.911064965891	0
351	99530	43.916064965891	0
351	99630	43.921064965891	0
351	100355	43.931400959755	0
351	100770	43.936400959755	0
351	100771	43.941400959755	0
351	101503	43.952247468624	0
351	101803	43.957247468624	0
351	102856	43.988574864712	0
351	103065	43.993574864712	0
351	103662	44.027495502714	0
351	103663	44.032495502714	0
351	104064	44.066079524169	0
351	104065	44.071079524169	0
351	104072	44.505	1
351	104079	44.51	0
351	105911	44.518639900097	40
351	107185	44.523639900097	0
351	108289	44.528639900097	0
351	110002	44.538610568206	0
351	110910	44.543610568206	0
351	111650	44.548610568206	0
351	112623	44.553610568206	0
351	113983	44.558610568206	0
351	115012	44.564424865874	0
351	116001	44.569424865874	0
351	116546	44.574424865874	0
351	117796	44.579424865874	0
351	119390	44.585935047428	0
351	120231	44.590935047428	0
351	121585	44.595935047428	0
351	122502	44.601504828744	0
351	123536	44.606504828744	0
351	125565	44.616149888587	0
351	126456	44.621149888587	0
351	127938	44.628384417142	0
351	128857	44.633384417142	0
351	129787	44.638384417142	0
351	131054	44.643583066527	0
351	131668	44.648583066527	0
351	136164	44.670025486154	0
351	136989	44.675025486154	0
351	138012	44.681321743056	0
351	138840	44.686321743056	0
351	140043	44.691321743056	0
351	140738	44.696321743056	0
351	142375	44.706380026695	0
351	143067	44.711380026695	0
351	143910	44.716380026695	0
351	144604	44.721380026695	0
351	145312	44.726380026695	0
351	145937	44.731380026695	0
351	146938	44.736380026695	0
351	148167	44.741380026695	0
351	148665	44.746380026695	0
351	151367	44.76371217175	0
351	152261	44.76871217175	0
351	153486	44.776806697204	0
351	154076	44.781806697204	0
351	156420	44.796078271081	0
351	157013	44.801078271081	0
351	158115	44.807318293783	0
351	159023	44.812318293783	0
351	159827	44.817318293783	0
351	160651	44.822318293783	0
351	161045	44.827318293783	0
351	161685	44.832318293783	0
351	162607	44.837318293783	0
351	163427	44.842318293783	0
351	164443	44.847318293783	0
351	165141	44.852318293783	0
351	166693	44.861214333998	0
351	167434	44.866214333998	0
351	168051	44.871214333998	0
351	168739	44.876214333998	0
351	169678	44.883553948337	0
351	170211	44.888553948337	0
351	171211	44.893553948337	0
351	171754	44.898553948337	0
351	174188	44.915030568181	0
351	174272	44.920030568181	0
351	175096	44.927371972834	0
351	175510	44.932371972834	0
351	177163	44.950735982775	0
351	177164	44.955735982775	0
351	177778	44.974705993188	0
351	178192	44.979705993188	0
351	178788	45.010693138989	0
351	178789	45.015693138989	0
351	179221	45.047939503317	0
351	179222	45.052939503317	0
351	179645	45.083928709159	0
351	179646	45.088928709159	0
351	179653	45.505	1
351	179663	45.51	0
351	181156	45.517602794457	23
351	181947	45.522602794457	0
351	182764	45.527602794457	0
351	183765	45.532602794457	0
351	184453	45.537602794457	0
351	185293	45.542602794457	0
351	186095	45.547602794457	0
351	186444	45.552602794457	0
351	187066	45.557602794457	0
351	187886	45.562602794457	0
351	188777	45.567602794457	0
351	189578	45.572602794457	0
351	190110	45.578606711619	0
351	191019	45.583606711619	0
351	191621	45.588606711619	0
351	192248	45.593606711619	0
351	192665	45.598606711619	0
351	195002	45.613204734318	0
351	195505	45.618204734318	0
351	196034	45.623204734318	0
351	196426	45.628204734318	0
351	196845	45.635213957409	0
351	197231	45.640213957409	0
351	198043	45.648268740401	0
351	198336	45.653268740401	0
351	198962	45.658617738575	0
351	199564	45.663617738575	0
351	199981	45.668617738575	0
351	200703	45.673617738575	0
351	201209	45.678617738575	0
351	201901	45.683617738575	0
351	203054	45.696516873876	0
351	203378	45.701516873876	0
351	203576	45.706516873876	0
351	204484	45.711791979518	0
351	205008	45.716791979518	0
351	205012	45.721791979518	0
351	205822	45.738387654801	0
351	206231	45.743387654801	0
351	206232	45.748387654801	0
351	206648	45.760473700785	0
351	207048	45.765473700785	0
351	207049	45.770473700785	0
351	207227	46.505	1
351	207234	46.51	0
351	208282	46.518646257169	19
351	209127	46.523646257169	0
351	209572	46.528646257169	0
351	210379	46.533646257169	0
351	211095	46.538646257169	0
351	212083	46.543646257169	0
351	212695	46.548646257169	0
351	213605	46.555150189911	0
351	214032	46.560150189911	0
351	214834	46.565150189911	0
351	215519	46.570150189911	0
351	216166	46.575150189911	0
351	216708	46.580150189911	0
351	217239	46.585150189911	0
351	218059	46.590150189911	0
351	218659	46.595150189911	0
351	219827	46.600150189911	0
351	220445	46.605150189911	0
351	221353	46.612550215023	0
351	221899	46.617550215023	0
351	222828	46.622550215023	0
351	223219	46.627550215023	0
351	223811	46.633366642096	0
351	224444	46.638366642096	0
351	225450	46.643366642096	0
351	226361	46.648366642096	0
351	227273	46.653366642096	0
351	227479	46.658366642096	0
351	228088	46.663465261258	0
351	228679	46.668465261258	0
351	229272	46.674705851729	0
351	229793	46.679705851729	0
351	230297	46.684705851729	0
351	230907	46.689705851729	0
351	232056	46.70061041518	0
351	232746	46.70561041518	0
351	233637	46.713369870291	0
351	234121	46.718369870291	0
351	234430	46.723369870291	0
351	234834	46.728369870291	0
351	235657	46.73690585858	0
351	236075	46.74190585858	0
351	236502	46.74690585858	0
351	237088	46.75190585858	0
351	237692	46.761291256454	0
351	237693	46.766291256454	0
351	238922	46.807585304665	0
351	239020	46.812585304665	0
351	239330	46.818519118741	0
351	239331	46.823519118741	0
351	239609	47.505	1
351	240255	47.51	27
351	241814	47.515	0
351	242954	47.52	0
351	243988	47.525	0
351	244623	47.53	0
351	245710	47.535	0
351	246929	47.54	0
351	247954	47.545	0
351	248703	47.55	0
351	249553	47.555	0
351	250593	47.56	0
351	251644	47.565	0
351	252498	47.57	0
351	253913	47.575	0
351	255075	47.58	0
351	256301	47.585	0
351	257327	47.59	0
351	258332	47.595	0
351	259269	47.6	0
351	259880	47.605	0
351	260421	47.61	0
351	261066	47.615	0
351	261807	47.620975434471	0
351	262248	47.625975434471	0
351	262748	47.630975434471	0
351	264085	47.637872741767	0
351	265086	47.642872741767	0
351	266394	47.654121346037	0
351	267029	47.659121346037	0
351	267664	47.664121346037	0
351	268280	47.669121346037	0
351	269594	47.677360810521	0
351	270021	47.682360810521	0
351	270620	47.687360810521	0
351	271149	47.692360810521	0
351	272009	47.698344284643	0
351	272923	47.703344284643	0
351	273206	47.708344284643	0
351	273935	47.713888100409	0
351	274328	47.718888100409	0
351	274636	47.723888100409	0
351	275673	47.729053544761	0
351	276189	47.734053544761	0
351	276997	47.739528139472	0
351	277825	47.744528139472	0
351	278247	47.749528139472	0
351	278675	47.754528139472	0
351	279409	47.759528139472	0
351	280035	47.764528139472	0
351	280757	47.774727578655	0
351	280852	47.779727578655	0
351	281689	47.786111598763	0
351	282180	47.791111598763	0
351	282604	47.807506117108	0
351	282799	47.812506117108	0
351	283250	47.817506117108	0
351	283663	47.822506117108	0
351	283664	47.827506117108	0
351	284167	47.841868213478	0
351	284493	47.846868213478	0
351	284494	47.851868213478	0
351	284672	48.505	1
351	284773	48.51	0
351	287112	48.516528229675	42
351	288712	48.521528229675	0
351	290275	48.527312470635	0
351	291273	48.532312470635	0
351	292030	48.537312470635	0
351	292967	48.542312470635	0
351	294646	48.551214274394	0
351	295488	48.556214274394	0
351	297442	48.564590598679	0
351	298572	48.569590598679	0
351	300075	48.574590598679	0
351	303672	48.593940552343	0
351	304506	48.598940552343	0
351	305678	48.603940552343	0
351	307440	48.613371098881	0
351	308286	48.618371098881	0
351	312287	48.640164317078	0
351	313464	48.645164317078	0
351	314503	48.650164317078	0
351	316849	48.66478026073	0
351	318060	48.66978026073	0
351	319171	48.67478026073	0
351	321244	48.68552459004	0
351	322198	48.69052459004	0
351	323126	48.69552459004	0
351	324528	48.70052459004	0
351	326009	48.708785961407	0
351	326723	48.713785961407	0
351	327974	48.719255970233	0
351	328920	48.724255970233	0
351	331683	48.736746781999	0
351	332820	48.741746781999	0
351	333649	48.746746781999	0
351	336248	48.760713626546	0
351	337503	48.765713626546	0
351	338347	48.770713626546	0
351	339121	48.775713626546	0
351	340258	48.780713626546	0
351	341351	48.785713626546	0
351	342511	48.790713626546	0
351	343373	48.795713626546	0
351	344106	48.800713626546	0
351	344613	48.805713626546	0
351	346071	48.813608274289	0
351	347268	48.818608274289	0
351	348301	48.824956546621	0
351	349151	48.829956546621	0
351	349979	48.834956546621	0
351	350963	48.84025979969	0
351	351979	48.84525979969	0
351	352718	48.85025979969	0
351	353859	48.85525979969	0
351	354483	48.86025979969	0
351	355960	48.86837345759	0
351	356876	48.87337345759	0
351	357705	48.87837345759	0
351	358422	48.88337345759	0
351	359347	48.88837345759	0
351	360372	48.895620858992	0
351	361219	48.900620858992	0
351	361677	48.905620858992	0
351	362704	48.910620858992	0
351	363427	48.915620858992	0
351	364680	48.927083975963	0
351	365467	48.932083975963	0
351	365906	48.937083975963	0
351	366406	48.942083975963	0
351	367171	48.948081055632	0
351	367577	48.953081055632	0
351	367793	48.958081055632	0
351	368208	48.965771166223	0
351	368303	48.970771166223	0
351	369672	48.991981175479	0
351	369673	48.996981175479	0
351	370272	49.053641834664	0
351	370273	49.058641834664	0
351	370421	49.505	1
351	370923	49.51	11
351	371853	49.515	0
351	372849	49.52	0
351	374121	49.525	0
351	375114	49.53	0
351	375125	49.535	0
351	375747	49.541921649787	0
351	376061	49.546921649787	0
351	377169	49.554766855245	0
351	377669	49.559766855245	0
351	378181	49.564766855245	0
351	378488	49.569766855245	0
351	379363	49.579172594221	0
351	379965	49.584172594221	0
351	381451	49.598089678114	0
351	382064	49.603089678114	0
351	383491	49.614567255853	0
351	383926	49.619567255853	0
351	384820	49.624567255853	0
351	385230	49.629567255853	0
351	385717	49.634567255853	0
351	386304	49.63982998039	0
351	386638	49.64482998039	0
351	387046	49.64982998039	0
351	387047	49.65482998039	0
351	387756	50.505	1
351	388936	50.51	20
351	389948	50.515	0
351	391078	50.52	0
351	392451	50.525	0
351	393183	50.53	0
351	394238	50.535	0
351	395028	50.54	0
351	396585	50.552252276864	0
351	397415	50.557252276864	0
351	398176	50.562252276864	0
351	399028	50.567252276864	0
351	399713	50.572252276864	0
351	401561	50.58515505237	0
351	401871	50.59015505237	0
351	402918	50.597000776794	0
351	403725	50.602000776794	0
351	404639	50.608118145616	0
351	405057	50.613118145616	0
351	405877	50.619403041666	0
351	406597	50.624403041666	0
351	407028	50.629403041666	0
351	407550	50.634403041666	0
351	408155	50.639403041666	0
351	408891	50.644752792567	0
351	409206	50.649752792567	0
351	410107	50.654878449929	0
351	410934	50.659878449929	0
351	411432	50.664878449929	0
351	411737	50.670612322755	0
351	412141	50.675612322755	0
351	412240	50.680612322755	0
351	413491	50.689518964365	0
351	414023	50.694518964365	0
351	414118	50.699518964365	0
351	414825	50.705824699636	0
351	414922	50.710824699636	0
351	416160	50.72062276637	0
351	416472	50.72562276637	0
351	416774	50.73062276637	0
351	417096	50.73562276637	0
351	417728	50.74062276637	0
351	418145	50.748198832122	0
351	418555	50.753198832122	0
351	418556	50.758198832122	0
351	419258	50.769869709014	0
351	419380	50.774869709014	0
351	419581	51.505	1
351	419682	51.51	0
351	420732	51.516542871407	23
351	422017	51.521542871407	0
351	423161	51.526542871407	0
351	424184	51.531542871407	0
351	425502	51.536542871407	0
351	426916	51.541542871407	0
351	427544	51.546542871407	0
351	428664	51.551542871407	0
351	429636	51.556542871407	0
351	430428	51.561542871407	0
351	431540	51.566542871407	0
351	432279	51.571542871407	0
351	434432	51.585880635382	0
351	435148	51.590880635382	0
351	436192	51.596770772209	0
351	437005	51.601770772209	0
351	438074	51.606770772209	0
351	439317	51.611770772209	0
351	440227	51.616770772209	0
351	441109	51.621770772209	0
351	441952	51.626770772209	0
351	442694	51.631770772209	0
351	443428	51.636770772209	0
351	444149	51.641770772209	0
351	445991	51.655297234633	0
351	446510	51.660297234633	0
351	447300	51.665297234633	0
351	447818	51.670297234633	0
351	448639	51.675297234633	0
351	449032	51.680297234633	0
351	450152	51.691674947786	0
351	450894	51.696674947786	0
351	451288	51.701674947786	0
351	452012	51.708799542895	0
351	452806	51.713799542895	0
351	454145	51.726259470146	0
351	454557	51.731259470146	0
351	455074	51.736259470146	0
351	456593	51.747807877245	0
351	456998	51.752807877245	0
351	457407	51.757807877245	0
351	458230	51.764667269672	0
351	458944	51.769667269672	0
351	459385	51.774667269672	0
351	459781	51.779667269672	0
351	460099	51.786168324908	0
351	460195	51.791168324908	0
351	460530	51.796515349296	0
351	461042	51.801515349296	0
351	461759	51.806515349296	0
351	461854	51.811515349296	0
351	462632	51.816764414219	0
351	462642	51.821764414219	0
351	463077	51.826764414219	0
351	463078	51.831764414219	0
351	463375	52.505	1
351	464720	52.51	39
351	467761	52.515	0
351	469044	52.52	0
351	470225	52.525	0
351	470979	52.53	0
351	472446	52.535	0
351	473974	52.54	0
351	475532	52.545	0
351	476726	52.55	0
351	477559	52.555	0
351	479277	52.563282684139	0
351	480167	52.568282684139	0
351	481052	52.573282684139	0
351	483753	52.583944793733	0
351	484927	52.588944793733	0
351	485974	52.593944793733	0
351	487152	52.598944793733	0
351	488475	52.603944793733	0
351	489323	52.608944793733	0
351	491640	52.6192333252	0
351	492997	52.6242333252	0
351	493775	52.6292333252	0
351	495048	52.6342333252	0
351	496206	52.6392333252	0
351	497937	52.648020286739	0
351	498726	52.653020286739	0
351	499479	52.658020286739	0
351	500461	52.663020286739	0
351	501699	52.669201765346	0
351	502878	52.674201765346	0
351	503794	52.679201765346	0
351	504834	52.684201765346	0
351	506127	52.689265332037	0
351	507019	52.694265332037	0
351	507764	52.699265332037	0
351	508918	52.704265332037	0
351	509892	52.709265332037	0
351	510748	52.714265332037	0
351	511379	52.719265332037	0
351	512254	52.724265332037	0
351	513355	52.729265332037	0
351	514333	52.734265332037	0
351	515344	52.739265332037	0
351	516367	52.744265332037	0
351	517187	52.749265332037	0
351	518454	52.754914385753	0
351	519411	52.759914385753	0
351	520456	52.764914385753	0
351	521733	52.769914385753	0
351	522581	52.77525637052	0
351	523353	52.78025637052	0
351	524835	52.788841849792	0
351	525931	52.793841849792	0
351	528941	52.813634230741	0
351	529791	52.818634230741	0
351	530655	52.823634230741	0
351	531115	52.828634230741	0
351	532038	52.833634230741	0
351	532563	52.838634230741	0
351	533753	52.843634230741	0
351	534395	52.848634230741	0
351	535597	52.858999337091	0
351	535914	52.863999337091	0
351	536547	52.868999337091	0
351	537092	52.873999337091	0
351	537836	52.878999337091	0
351	538647	52.883999337091	0
351	538876	52.888999337091	0
351	540319	52.898866237984	0
351	540568	52.903866237984	0
351	541510	52.908866237984	0
351	542261	52.913866237984	0
351	542792	52.918866237984	0
351	543455	52.924961281026	0
351	543910	52.929961281026	0
351	544269	52.934961281026	0
351	544900	52.939961281026	0
351	545438	52.947642250049	0
351	545972	52.952642250049	0
351	547491	53.505	1
351	548458	53.51	35
351	550371	53.515	0
351	552413	53.52	0
351	553417	53.525	0
351	554773	53.53	0
351	556708	53.535	0
351	558177	53.54	0
351	559063	53.545	0
351	559823	53.55	0
351	560702	53.555	0
351	563789	53.566727905048	0
351	565108	53.571727905048	0
351	566253	53.576727905048	0
351	567724	53.581727905048	0
351	568630	53.586727905048	0
351	569906	53.592798763526	0
351	570905	53.597798763526	0
351	572373	53.602798763526	0
351	573346	53.607798763526	0
351	574299	53.612798763526	0
351	576627	53.622820961674	0
351	577851	53.627820961674	0
351	578600	53.632820961674	0
351	580023	53.639240234502	0
351	581434	53.644240234502	0
351	582895	53.653844835943	0
351	583735	53.658844835943	0
351	584916	53.666942755678	0
351	585639	53.671942755678	0
351	586412	53.676942755678	0
351	587351	53.682456225074	0
351	588300	53.687456225074	0
351	589623	53.696689630461	0
351	590704	53.701689630461	0
351	592801	53.713231225474	0
351	593451	53.718231225474	0
351	595376	53.729483901714	0
351	596150	53.734483901714	0
351	597307	53.739483901714	0
351	598041	53.744483901714	0
351	599472	53.753024356144	0
351	600431	53.758024356144	0
351	601407	53.763024356144	0
351	602044	53.768024356144	0
351	602904	53.775608382883	0
351	603231	53.780608382883	0
351	603750	53.785608382883	0
351	604544	53.792081408363	0
351	605383	53.797081408363	0
351	605924	53.802081408363	0
351	606762	53.807081408363	0
351	607298	53.812081408363	0
351	607851	53.817429927473	0
351	608478	53.822429927473	0
351	609213	53.827429927473	0
351	609217	53.832429927473	0
351	610083	53.84235411151	0
351	610617	53.84735411151	0
351	611486	53.85235411151	0
351	611687	53.85735411151	0
351	612447	53.867352084813	0
351	612883	53.872352084813	0
351	613396	53.877352084813	0
351	614623	53.900682172703	0
351	615042	53.905682172703	0
351	615043	53.910682172703	0
351	615263	54.505	1
351	615364	54.51	0
351	616726	54.516517846326	27
351	617432	54.521517846326	0
351	618409	54.526530884114	0
351	619828	54.531530884114	0
351	621540	54.536530884114	0
351	622830	54.541530884114	0
351	623781	54.546530884114	0
351	625160	54.551530884114	0
351	626675	54.556530884114	0
351	627442	54.561530884114	0
351	628133	54.566530884114	0
351	629809	54.577667420887	0
351	630777	54.582667420887	0
351	631573	54.587667420887	0
351	632453	54.592819185096	0
351	633331	54.597819185096	0
351	634724	54.602819185096	0
351	635903	54.607819185096	0
351	636971	54.612819185096	0
351	637757	54.617819185096	0
351	638515	54.622819185096	0
351	639383	54.627819185096	0
351	640302	54.632819185096	0
351	641753	54.637819185096	0
351	642540	54.642819185096	0
351	643148	54.647819185096	0
351	643693	54.654227565096	0
351	644518	54.659227565096	0
351	645152	54.664227565096	0
351	646471	54.669227565096	0
351	647023	54.674227565096	0
351	647869	54.679227565096	0
351	648904	54.684227565096	0
351	649966	54.689227565096	0
351	651162	54.696851338624	0
351	651785	54.701851338624	0
351	652529	54.706851338624	0
351	654445	54.722186554593	0
351	655359	54.727186554593	0
351	655486	54.732186554593	0
351	656384	54.739258579593	0
351	657116	54.744258579593	0
351	657770	54.749258579593	0
351	658117	54.754258579593	0
351	658750	54.764906359327	0
351	659386	54.769906359327	0
351	659825	54.774906359327	0
351	659920	54.779906359327	0
351	660273	54.785099167511	0
351	660369	54.790099167511	0
351	661138	54.796363214158	0
351	661577	54.801363214158	0
351	661578	54.806363214158	0
351	664998	70.00501	0
351	665441	70.01001	0
351	665863	70.01501	0
351	666738	70.02001	0
351	666833	70.02501	0
351	667154	70.030124080446	0
351	667155	70.035124080446	0
351	667756	71.00501	0
351	667851	71.01001	0
351	668622	71.015916019549	0
351	668834	71.020916019549	0
351	669471	71.025916019549	0
351	669913	71.030916019549	0
351	669917	71.035916019549	0
351	670339	71.042532062569	0
351	670340	71.047532062569	0
351	670788	71.076836098542	0
351	670789	71.081836098542	0
351	671183	72.00501	0
351	671846	72.01001	0
351	672272	72.01501	0