file 250618 1353498708                                          
version 2
run AODVScenario_1f-41-20121121-11:51:21-3280
attr configname AODVScenario_1f
attr datetime 20121121-11:51:21
attr experiment AODVScenario_1f
attr inifile AODV.ini
attr iterationvars $numNodes=91
attr iterationvars2 "$numNodes=91, $repetition=0"
attr measurement $numNodes=91
attr network csma802154net
attr numNodes 91
attr processid 3280
attr repetition 0
attr replication #0
attr resultdir results
attr runnumber 41
attr seedset 41

vector 375  csma802154net.dataCentricNetworkMan  RREQPacketFrequency  ETV
vector 376  csma802154net.dataCentricNetworkMan  RERRPacketFrequency  ETV
vector 377  csma802154net.dataCentricNetworkMan  DiscoveryPacketFrequency  ETV
vector 378  csma802154net.dataCentricNetworkMan  RegisterPacketFrequency  ETV
vector 379  csma802154net.dataCentricNetworkMan  RReplyPacketFrequency  ETV
vector 380  csma802154net.dataCentricNetworkMan  AODVDataPacketFrequency  ETV
vector 387  csma802154net.dataCentricNetworkMan  pendingRegistrationVector  ETV
vector 386  csma802154net.dataCentricNetworkMan  pendingRREQVector  ETV
vector 384  csma802154net.dataCentricNetworkMan  PendingDataPacketsVector  ETV
vector 400  csma802154net.fixhost[12].udpApp  "End-to-end delay"  ETV
vector 372  csma802154net.dataCentricNetworkMan  dataPacketE2EDelay  ETV
vector 393  csma802154net.fixhost[5].udpApp  "End-to-end delay"  ETV
vector 407  csma802154net.fixhost[19].udpApp  "End-to-end delay"  ETV
vector 415  csma802154net.fixhost[27].udpApp  "End-to-end delay"  ETV
vector 411  csma802154net.fixhost[23].udpApp  "End-to-end delay"  ETV
vector 394  csma802154net.fixhost[6].udpApp  "End-to-end delay"  ETV
vector 399  csma802154net.fixhost[11].udpApp  "End-to-end delay"  ETV
vector 401  csma802154net.fixhost[13].udpApp  "End-to-end delay"  ETV
vector 391  csma802154net.fixhost[3].udpApp  "End-to-end delay"  ETV
vector 395  csma802154net.fixhost[7].udpApp  "End-to-end delay"  ETV
vector 396  csma802154net.fixhost[8].udpApp  "End-to-end delay"  ETV
372	2013 6505 748282 2315306 70.022076039814 7273.073180144328 143 0.011196030049 0.094868144328 5.235352872791 0.23907162641527
375	8518 36967 721 2315533 1.005 7273.079172084163 1291 0 101 2172 127678
376	45485 36922 721 2315533 1.005 7273.079172084163 1291 0 0 0 0
377	82407 36922 721 2315533 1.005 7273.079172084163 1291 0 0 0 0
378	119329 36922 721 2315533 1.005 7273.079172084163 1291 0 1 12 12
379	156251 36935 721 2315533 1.005 7273.079172084163 1291 0 115 1482 58440
380	193186 36938 721 2315533 1.005 7273.079172084163 1291 0 113 1293 50921
384	230124 11991 747067 2315306 70 7273.073180144328 390 0 3 455 871
386	242115 1442 36443 739183 43.50001 54.816654516595 51 0 1 17 17
387	243557 556 36438 743740 43.5 54.916552088589 23 0 2 32 52
391	244113 591 761562 2312430 73.039516102322 7273.030876102322 13 0.028564102322 0.067140102322 0.484013330181 0.019541003321939
393	244704 593 748739 2299604 70.027444030049 7270.017524030049 13 0.011196030049 0.041204030047 0.253204390632 0.006132850624816
394	245297 593 755572 2306431 72.021356066279 7272.021356066279 13 0.019116066278 0.042324125603 0.313420920948 0.0079596115759186
395	245890 593 762686 2313833 73.060924098219 7273.057652098219 13 0.026756098217 0.079980098219 0.665093407361 0.037101035473733
396	246483 591 764163 2315306 73.094692144329 7273.073180144328 13 0.040076172441 0.094868144328 0.893309979681 0.064969365715516
399	247074 593 756491 2307351 72.026684096398 7272.028604096397 13 0.026684096398 0.082468096398 0.472189253171 0.019919797739893
400	247667 593 748282 2299148 70.022076039814 7270.011836039815 13 0.011836039814 0.037364039815 0.225116517589 0.0044582389338083
401	248260 593 757907 2308767 72.040612135797 7272.041004135795 13 0.038124135797 0.068700135795 0.638541759329 0.032681279351128
407	248853 593 752103 2302071 71.027436060242 7271.022316060243 13 0.021036060243 0.051612060242 0.374156783154 0.012019937384249
411	249446 581 753014 2302987 71.03749208308 7271.028924083081 13 0.02131608308 0.03749208308 0.385013080047 0.011649057590078
415	250027 591 752562 2303884 71.031124111592 7271.040652111593 13 0.031124111592 0.058964111592 0.531293450698 0.022639448704195
