file 210392 1353324093                                          
version 2
run AODVScenario_1f-44-20121119-11:21:08-3056
attr configname AODVScenario_1f
attr datetime 20121119-11:21:08
attr experiment AODVScenario_1f
attr inifile AODV.ini
attr iterationvars $numNodes=94
attr iterationvars2 "$numNodes=94, $repetition=0"
attr measurement $numNodes=94
attr network csma802154net
attr numNodes 94
attr processid 3056
attr repetition 0
attr replication #0
attr resultdir results
attr runnumber 44
attr seedset 44

vector 387  csma802154net.dataCentricNetworkMan  RREQPacketFrequency  ETV
vector 388  csma802154net.dataCentricNetworkMan  RERRPacketFrequency  ETV
vector 389  csma802154net.dataCentricNetworkMan  DiscoveryPacketFrequency  ETV
vector 390  csma802154net.dataCentricNetworkMan  RegisterPacketFrequency  ETV
vector 391  csma802154net.dataCentricNetworkMan  RReplyPacketFrequency  ETV
vector 392  csma802154net.dataCentricNetworkMan  AODVDataPacketFrequency  ETV
vector 399  csma802154net.dataCentricNetworkMan  pendingRegistrationVector  ETV
vector 398  csma802154net.dataCentricNetworkMan  pendingRREQVector  ETV
vector 396  csma802154net.dataCentricNetworkMan  PendingDataPacketsVector  ETV
vector 415  csma802154net.fixhost[15].udpApp  "End-to-end delay"  ETV
vector 384  csma802154net.dataCentricNetworkMan  dataPacketE2EDelay  ETV
vector 423  csma802154net.fixhost[23].udpApp  "End-to-end delay"  ETV
vector 424  csma802154net.fixhost[24].udpApp  "End-to-end delay"  ETV
vector 408  csma802154net.fixhost[8].udpApp  "End-to-end delay"  ETV
vector 413  csma802154net.fixhost[13].udpApp  "End-to-end delay"  ETV
vector 401  csma802154net.fixhost[1].udpApp  "End-to-end delay"  ETV
vector 402  csma802154net.fixhost[2].udpApp  "End-to-end delay"  ETV
vector 404  csma802154net.fixhost[4].udpApp  "End-to-end delay"  ETV
384	1801 4727 738125 2280576 70.026756092941 7273.016596069103 104 0.006756030115 0.059284108243 2.4601434053 0.071924083550861
387	6528 31367 745 2280809 1.005 7273.02501 1108 0 97 1971 109875
388	37895 31325 745 2280809 1.005 7273.02501 1108 0 0 0 0
389	69220 31325 745 2280809 1.005 7273.02501 1108 0 0 0 0
390	100545 31325 745 2280809 1.005 7273.02501 1108 0 1 12 12
391	131870 31337 745 2280809 1.005 7273.02501 1108 0 81 1385 47423
392	163207 31340 745 2280809 1.005 7273.02501 1108 0 80 1098 42200
396	194547 9455 735396 2280576 70 7273.016596069103 312 0 3 286 468
398	204002 1198 36901 678013 43.50001 54.52485246354 43 0 1 14 14
399	205200 465 36896 716456 43.5 54.74940806694 20 1 5 74 298
401	205665 593 746908 2279658 73.008676030115 7273.007716030115 13 0.006756030115 0.010276030115 0.113428391493 0.0010046111997468
402	206258 591 747366 2280116 73.013436051411 7273.012796051411 13 0.011196051411 0.014716051409 0.17178866834 0.0022804223515363
404	206849 593 747826 2280576 73.016916069103 7273.016596069103 13 0.016276069102 0.019156069103 0.230148898335 0.0040877344157516
408	207442 581 744715 2277579 72.02135606787 7272.02423606787 13 0.02103606787 0.05481206787 0.354172882309 0.010574306971355
413	208023 593 745760 2278510 72.052572092719 7272.051684092718 13 0.021996092719 0.053852092717 0.471181205334 0.019025729693877
415	208616 592 738125 2270885 70.026756092941 7270.025476092943 13 0.022276092944 0.028036092942 0.328629208263 0.0083434238556426
423	209208 592 741117 2273415 71.028716057236 7271.020076057236 13 0.017196057236 0.045924057236 0.325020744063 0.0088216407414774
424	209800 592 742059 2274824 71.035356108244 7271.035284108244 13 0.027036108242 0.059284108243 0.465773407163 0.017786214321474
