version 2
run AODVScenario_1f-72-20121119-11:39:37-528
attr configname AODVScenario_1f
attr datetime 20121119-11:39:37
attr experiment AODVScenario_1f
attr inifile AODV.ini
attr iterationvars $numNodes=122
attr iterationvars2 "$numNodes=122, $repetition=0"
attr measurement $numNodes=122
attr network csma802154net
attr numNodes 122
attr processid 528
attr repetition 0
attr replication #0
attr resultdir results
attr runnumber 72
attr seedset 72

vector 499  csma802154net.dataCentricNetworkMan  RREQPacketFrequency  ETV
vector 500  csma802154net.dataCentricNetworkMan  RERRPacketFrequency  ETV
vector 501  csma802154net.dataCentricNetworkMan  DiscoveryPacketFrequency  ETV
vector 502  csma802154net.dataCentricNetworkMan  RegisterPacketFrequency  ETV
vector 503  csma802154net.dataCentricNetworkMan  RReplyPacketFrequency  ETV
vector 504  csma802154net.dataCentricNetworkMan  AODVDataPacketFrequency  ETV
vector 511  csma802154net.dataCentricNetworkMan  pendingRegistrationVector  ETV
vector 510  csma802154net.dataCentricNetworkMan  pendingRREQVector  ETV
vector 505  csma802154net.dataCentricNetworkMan  AODVDataLineBreakVector  ETV
vector 508  csma802154net.dataCentricNetworkMan  PendingDataPacketsVector  ETV
vector 560  csma802154net.fixhost[48].udpApp  "End-to-end delay"  ETV
vector 496  csma802154net.dataCentricNetworkMan  dataPacketE2EDelay  ETV
vector 545  csma802154net.fixhost[33].udpApp  "End-to-end delay"  ETV
vector 517  csma802154net.fixhost[5].udpApp  "End-to-end delay"  ETV
vector 520  csma802154net.fixhost[8].udpApp  "End-to-end delay"  ETV
vector 521  csma802154net.fixhost[9].udpApp  "End-to-end delay"  ETV
vector 518  csma802154net.fixhost[6].udpApp  "End-to-end delay"  ETV
vector 525  csma802154net.fixhost[13].udpApp  "End-to-end delay"  ETV
496	1823014	71.004556013223	0.004556013223
496	1823643	71.072996026514	0.072996026514
496	1955551	73.019236023557	0.019236023557
496	1956197	73.02399604763	0.02399604763
496	1956819	73.029076068152	0.029076068152
496	2305366	671.003276013223	0.003276013223
496	2305994	671.007716026514	0.007716026514
496	2309459	672.066156063378	0.066156063378
496	2311360	672.076244095717	0.076244095717
496	2312882	673.010276023557	0.010276023557
496	2313528	673.01439604763	0.01439604763
496	2314150	673.018196068152	0.018196068152
496	2465761	1271.004236013223	0.004236013223
496	2466389	1271.009316026514	0.009316026514
496	2469850	1272.021036063378	0.021036063378
496	2471757	1272.035284095717	0.035284095717
496	2473278	1273.008996023557	0.008996023557
496	2473925	1273.01343604763	0.01343604763
496	2474547	1273.018836068152	0.018836068152
496	2626138	1871.003276013223	0.003276013223
496	2626766	1871.008356026514	0.008356026514
496	2630227	1872.020076063378	0.020076063378
496	2632134	1872.035284095719	0.035284095719
496	2633656	1873.010276023557	0.010276023557
496	2634303	1873.015676047629	0.015676047629
496	2634925	1873.021076068151	0.021076068151
496	2786394	2471.003916013223	0.003916013223
496	2787022	2471.007396026514	0.007396026514
496	2790482	2472.023276063378	0.023276063378
496	2792383	2472.034396095719	0.034396095719
496	2793904	2473.006756023557	0.006756023557
496	2794551	2473.01055604763	0.01055604763
496	2795173	2473.015956068152	0.015956068152
496	2946642	3071.003276013223	0.003276013223
496	2947270	3071.008036026514	0.008036026514
496	2950731	3072.021996063379	0.021996063379
496	2952638	3072.036884095719	0.036884095719
496	2954159	3073.009636023557	0.009636023557
496	2954806	3073.01407604763	0.01407604763
496	2955428	3073.018196068151	0.018196068151
496	3107019	3671.003916013222	0.003916013222
496	3107647	3671.008996026513	0.008996026513
496	3111733	3672.021604063379	0.021604063379
496	3113013	3672.027676095719	0.027676095719
496	3114534	3673.008676023557	0.008676023557
496	3115181	3673.01247604763	0.01247604763
496	3115803	3673.017556068152	0.017556068152
496	3267272	4271.002956013223	0.002956013223
496	3267900	4271.007076026513	0.007076026513
496	3271617	4272.022636063377	0.022636063377
496	3273529	4272.057684095717	0.057684095717
496	3275050	4273.008036023556	0.008036023556
496	3275697	4273.013436047628	0.013436047628
496	3276319	4273.01691606815	0.01691606815
496	3427788	4871.004876013223	0.004876013223
496	3428416	4871.009636026513	0.009636026513
496	3432503	4872.025764063379	0.025764063379
496	3433782	4872.032156095719	0.032156095719
496	3435303	4873.008676023557	0.008676023557
496	3435950	4873.01311604763	0.01311604763
496	3436572	4873.017876068152	0.017876068152
496	3588163	5471.003916013223	0.003916013223
496	3588791	5471.008676026514	0.008676026514
496	3592255	5472.021356063379	0.021356063379
496	3594158	5472.033364095719	0.033364095719
496	3595679	5473.008676023556	0.008676023556
496	3596326	5473.013756047629	0.013756047629
496	3596948	5473.017556068151	0.017556068151
496	3748417	6071.004876013223	0.004876013223
496	3749045	6071.008356026514	0.008356026514
496	3753133	6072.027684063379	0.027684063379
496	3754416	6072.034644095719	0.034644095719
496	3755937	6073.008036023557	0.008036023557
496	3756584	6073.01247604763	0.01247604763
496	3757206	6073.017876068152	0.017876068152
496	3908675	6671.003916013223	0.003916013223
496	3909303	6671.008356026514	0.008356026514
496	3913385	6672.024236063379	0.024236063379
496	3914666	6672.032156095719	0.032156095719
496	3916187	6673.008996023556	0.008996023556
496	3916834	6673.012796047628	0.012796047628
496	3917456	6673.01659606815	0.01659606815
496	4069047	7271.003596013223	0.003596013223
496	4069675	7271.007716026514	0.007716026514
496	4073136	7272.021036063378	0.021036063378
496	4075042	7272.033364095718	0.033364095718
496	4076564	7273.011236023557	0.011236023557
496	4077210	7273.01599604763	0.01599604763
496	4077832	7273.021076068152	0.021076068152
499	975	1.005	1
499	1492	1.01	88
499	3490	1.015	78
499	6481	1.02	133
499	10037	1.025	100
499	13266	1.03	59
499	17114	1.035	84
499	19221	1.04	92
499	21303	1.045	101
499	23291	1.05	133
499	25361	1.055	151
499	27158	1.06	127
499	28766	1.065	66
499	30066	1.07	108
499	31623	1.075	159
499	32533	1.08	52
499	34453	1.085	95
499	35314	1.09	69
499	36178	1.095	73
499	36710	1.1	56
499	36842	1.105	0
499	38151	1.111287480054	137
499	39062	1.116287480054	47
499	40079	1.121287480054	78
499	40211	1.126287480054	0
499	41000	1.133072172351	85
499	41001	1.138072172351	0
499	41514	1.147015229618	53
499	42101	1.152015229618	67
499	42105	1.157015229618	0
499	42615	1.164941887428	53
499	42616	1.169941887428	0
499	43656	1.183784293647	109
499	43657	1.188784293647	0
499	44180	1.197771839192	55
499	44181	1.202771839192	0
499	54791	43.505	1
499	54801	43.51	0
499	56779	43.518001761244	39
499	58425	43.523001761244	0
499	60265	43.528001761244	0
499	61822	43.533001761244	0
499	63099	43.538001761244	0
499	64557	43.543001761244	0
499	65842	43.548001761244	0
499	67276	43.553799737473	0
499	68322	43.558799737473	0
499	70568	43.569897604068	0
499	72005	43.574897604068	0
499	73685	43.583371452523	0
499	75233	43.588371452523	0
499	76292	43.593371452523	0
499	77349	43.598371452523	0
499	79409	43.605627091019	0
499	80909	43.610627091019	0
499	82348	43.615627091019	0
499	84616	43.624866804922	0
499	85815	43.629866804922	0
499	87126	43.634866804922	0
499	88323	43.639866804922	0
499	94099	43.662965522969	0
499	95395	43.667965522969	0
499	96837	43.672965522969	0
499	98902	43.682266822807	0
499	99999	43.687266822807	0
499	105489	43.710292246415	0
499	106291	43.715292246415	0
499	107373	43.720292246415	0
499	108551	43.725292246415	0
499	109899	43.730292246415	0
499	111074	43.735292246415	0
499	111918	43.740292246415	0
499	114553	43.75101732026	0
499	115287	43.75601732026	0
499	120098	43.779299331205	0
499	121166	43.784299331205	0
499	122094	43.789299331205	0
499	122988	43.794299331205	0
499	123590	43.799299331205	0
499	124732	43.804299331205	0
499	125627	43.809299331205	0
499	126387	43.814299331205	0
499	128725	43.828638698788	0
499	130165	43.833638698788	0
499	130750	43.838638698788	0
499	131651	43.843638698788	0
499	133139	43.853100056651	0
499	133476	43.858100056651	0
499	134794	43.865399766591	0
499	135566	43.870399766591	0
499	136428	43.875399766591	0
499	136990	43.880399766591	0
499	138025	43.885537159455	0
499	138497	43.890537159455	0
499	140415	43.900294717279	0
499	141166	43.905294717279	0
499	142305	43.910294717279	0
499	144014	43.915294717279	0
499	144904	43.920294717279	0
499	145364	43.925294717279	0
499	147005	43.934413032983	0
499	147890	43.939413032983	0
499	148459	43.944413032983	0
499	149195	43.949413032983	0
499	149520	43.954413032983	0
499	150461	43.959598118137	0
499	151477	43.964598118137	0
499	154762	43.99126764759	0
499	155182	43.99626764759	0
499	156027	44.00126764759	0
499	156768	44.00626764759	0
499	158013	44.015521130133	0
499	158755	44.020521130133	0
499	163666	44.082261185167	0
499	163668	44.087261185167	0
499	164290	44.10151833092	0
499	164903	44.10651833092	0
499	165634	44.114631199094	0
499	165949	44.119631199094	0
499	166126	44.141548640331	0
499	166426	44.146548640331	0
499	166868	44.169323647589	0
499	167181	44.174323647589	0
499	167647	44.179323647589	0
499	167654	44.505	1
499	168454	44.51	70
499	171518	44.515	0
499	174821	44.52	0
499	180610	44.533479161905	0
499	182038	44.538479161905	0
499	184635	44.543689085936	0
499	186229	44.548689085936	0
499	190403	44.561720189212	0
499	192012	44.566720189212	0
499	194124	44.573333398639	0
499	195852	44.578333398639	0
499	199186	44.588937179606	0
499	201184	44.593937179606	0
499	202970	44.600503435475	51
499	204388	44.605503435475	16
499	205541	44.610503435475	21
499	208115	44.615503435475	9
499	209565	44.620503435475	32
499	211381	44.625503435475	12
499	213671	44.630503435475	3
499	215917	44.635503435475	4
499	217355	44.640503435475	0
499	219684	44.648206649968	7
499	220867	44.653206649968	0
499	223089	44.661478409809	20
499	224916	44.666478409809	34
499	227228	44.671478409809	60
499	228962	44.676478409809	21
499	231318	44.681478409809	46
499	234263	44.686478409809	65
499	235980	44.691478409809	23
499	237931	44.696478409809	43
499	240127	44.701478409809	22
499	241702	44.706478409809	0
499	244231	44.711478409809	28
499	246021	44.716478409809	15
499	247760	44.721478409809	5
499	249978	44.726478409809	0
499	253121	44.739081201152	0
499	254509	44.744081201152	0
499	255823	44.749081201152	26
499	257806	44.754081201152	32
499	259470	44.759081201152	0
499	261206	44.764081201152	0
499	262786	44.769081201152	0
499	264249	44.774081201152	37
499	266126	44.779081201152	0
499	267279	44.784081201152	0
499	268897	44.789081201152	0
499	274807	44.810749989288	0
499	276068	44.815749989288	0
499	277548	44.820749989288	0
499	279159	44.825749989288	0
499	281275	44.830749989288	0
499	289623	44.860154378614	0
499	290647	44.865154378614	0
499	292126	44.870154378614	0
499	294597	44.878101317835	0
499	295956	44.883101317835	0
499	297120	44.888101317835	0
499	304122	44.911125924244	0
499	305321	44.916125924244	0
499	306518	44.921125924244	0
499	307696	44.926125924244	0
499	309457	44.931125924244	0
499	310615	44.936125924244	0
499	311914	44.941125924244	0
499	313883	44.947237793949	0
499	314918	44.952237793949	0
499	316776	44.958580111733	0
499	317657	44.963580111733	0
499	318875	44.968580111733	0
499	319878	44.973580111733	0
499	321761	44.978580111733	0
499	322680	44.983580111733	0
499	324407	44.988580111733	0
499	325998	44.993580111733	0
499	328320	45.001308553767	0
499	329999	45.006308553767	0
499	331181	45.011308553767	0
499	332232	45.016308553767	0
499	333306	45.021308553767	0
499	334812	45.026308553767	0
499	336156	45.031308553767	0
499	336873	45.036308553767	0
499	344510	45.081272665939	0
499	346111	45.086272665939	0
499	349496	45.107860389063	0
499	350525	45.112860389063	0
499	352391	45.120842454558	0
499	353416	45.125842454558	0
499	354167	45.130842454558	0
499	355385	45.138598975712	0
499	356376	45.143598975712	0
499	357488	45.150088986297	0
499	358115	45.155088986297	0
499	358549	45.160088986297	0
499	359100	45.165088986297	0
499	359266	45.170088986297	0
499	360799	45.188542123615	0
499	361224	45.193542123615	0
499	361702	45.19967042788	0
499	361703	45.20467042788	0
499	361987	45.216718887995	0
499	361991	45.221718887995	0
499	362925	45.22907067118	0
499	362927	45.23407067118	0
499	362928	45.23907067118	0
499	363503	45.278894449834	0
499	363504	45.283894449834	0
499	365665	45.357532123615	0
499	365667	45.362532123615	0
499	366828	45.466188685029	0
499	366829	45.471188685029	0
499	366836	45.505	1
499	366843	45.51	0
499	369363	45.520170807365	60
499	372768	45.525170807365	21
499	374273	45.530170807365	0
499	375957	45.535170807365	0
499	377266	45.540170807365	0
499	379200	45.546368885639	0
499	381022	45.551368885639	0
499	383268	45.556368885639	0
499	386287	45.568624725939	0
499	387801	45.573624725939	0
499	389461	45.578624725939	61
499	391007	45.583624725939	0
499	393273	45.589108926953	35
499	395915	45.594108926953	47
499	398680	45.599108926953	37
499	401690	45.604108926953	43
499	403847	45.609108926953	10
499	406191	45.614108926953	30
499	408396	45.619108926953	18
499	411028	45.624108926953	60
499	412603	45.629108926953	3
499	414287	45.634108926953	12
499	416174	45.639108926953	35
499	418513	45.644108926953	52
499	420922	45.649108926953	32
499	423111	45.654108926953	16
499	424752	45.659108926953	4
499	426520	45.664108926953	27
499	428366	45.669108926953	24
499	430666	45.674108926953	66
499	432099	45.679108926953	24
499	433634	45.684108926953	11
499	435067	45.689108926953	25
499	436108	45.694108926953	0
499	439029	45.703393002496	0
499	440497	45.708393002496	0
499	442111	45.713689362577	0
499	443431	45.718689362577	0
499	444561	45.723689362577	0
499	445992	45.729318805224	16
499	447933	45.734318805224	0
499	449490	45.739318805224	19
499	451421	45.744318805224	0
499	452978	45.749318805224	0
499	454781	45.760973173239	0
499	456669	45.765973173239	0
499	458088	45.770973173239	0
499	459590	45.775973173239	0
499	463522	45.789016597396	0
499	464881	45.794016597396	0
499	466792	45.804021582037	0
499	468127	45.809021582037	0
499	469487	45.814776542489	0
499	470983	45.819776542489	0
499	472256	45.824776542489	0
499	473345	45.829776542489	0
499	481050	45.853794416949	36
499	482249	45.858794416949	0
499	483124	45.863794416949	0
499	484593	45.868794416949	0
499	485692	45.873794416949	0
499	487191	45.878971868905	0
499	488359	45.883971868905	0
499	491610	45.898768425063	0
499	492768	45.903768425063	0
499	494357	45.908768425063	0
499	495435	45.913768425063	36
499	496314	45.918768425063	0
499	497364	45.923768425063	0
499	498964	45.928768425063	0
499	500398	45.933768425063	0
499	502033	45.943018243366	0
499	502902	45.948018243366	0
499	504119	45.953018243366	0
499	505649	45.958018243366	0
499	506945	45.963018243366	0
499	507725	45.968018243366	0
499	510310	45.981417354968	0
499	511436	45.986417354968	0
499	513845	45.996614604457	0
499	515777	46.001614604457	0
499	516870	46.006614604457	0
499	518059	46.011614604457	0
499	520266	46.021239827825	0
499	521074	46.026239827825	0
499	521839	46.031239827825	0
499	523646	46.038952555128	0
499	524718	46.043952555128	0
499	526298	46.048952555128	0
499	527272	46.053952555128	0
499	528089	46.058952555128	0
499	528548	46.063952555128	0
499	529174	46.071513175451	0
499	530387	46.076513175451	0
499	531287	46.081513175451	0
499	536472	46.126351409121	0
499	536804	46.131351409121	0
499	536991	46.136351409121	0
499	538342	46.153310624327	0
499	538510	46.158310624327	0
499	539271	46.175339645016	0
499	539444	46.180339645016	0
499	539446	46.187387417774	0
499	539579	46.192387417774	0
499	540069	46.20089458456	0
499	540070	46.20589458456	0
499	541320	46.241815354966	0
499	542166	46.246815354966	0
499	544179	46.251815354966	0
499	554212	46.505	1
499	555144	46.51	72
499	558008	46.515	0
499	561121	46.52	65
499	563198	46.525	80
499	566205	46.53	54
499	568709	46.535	58
499	571693	46.54	63
499	574215	46.545	62
499	576333	46.55	9
499	578293	46.555	10
499	580472	46.56	41
499	582562	46.565	36
499	584248	46.57	18
499	586754	46.575	39
499	588704	46.58	27
499	591052	46.585	49
499	592965	46.59	77
499	594708	46.595	0
499	595922	46.6	16
499	597231	46.605	0
499	599986	46.612440924422	10
499	601073	46.617440924422	0
499	604739	46.627969654748	44
499	606580	46.632969654748	38
499	607992	46.637969654748	18
499	608771	46.642969654748	0
499	610706	46.648913899072	17
499	612372	46.653913899072	23
499	613661	46.658913899072	24
499	615159	46.663913899072	40
499	616863	46.668913899072	0
499	620570	46.678906151148	42
499	622149	46.683906151148	0
499	624302	46.69151586757	1
499	625629	46.69651586757	37
499	626842	46.70151586757	0
499	628307	46.707568219213	0
499	630159	46.712568219213	0
499	631459	46.717568219213	0
499	633688	46.726978458064	0
499	635108	46.731978458064	0
499	636581	46.736978458064	0
499	638360	46.741978458064	0
499	639830	46.746978458064	0
499	641518	46.751978458064	0
499	643720	46.761049290787	0
499	644719	46.766049290787	0
499	647400	46.773528195209	0
499	648683	46.778528195209	0
499	651085	46.78357843632	0
499	652803	46.78857843632	0
499	654394	46.79357843632	0
499	662419	46.823204984166	0
499	663498	46.828204984166	0
499	665988	46.836578302521	0
499	667779	46.841578302521	0
499	669094	46.846578302521	0
499	670950	46.854339232604	0
499	672448	46.859339232604	0
499	673898	46.864339232604	0
499	675608	46.869339232604	0
499	686689	46.910112051013	0
499	688569	46.915112051013	0
499	689726	46.920112051013	0
499	691079	46.925112051013	0
499	692547	46.930112051013	0
499	693750	46.935112051013	0
499	698585	46.954380681061	0
499	699657	46.959380681061	0
499	701755	46.966543556563	0
499	703185	46.971543556563	0
499	704481	46.976543556563	0
499	705988	46.981543556563	0
499	706853	46.986543556563	0
499	707469	46.993436619857	0
499	708423	46.998436619857	0
499	710393	47.003436619857	0
499	711465	47.008436619857	0
499	712392	47.013436619857	0
499	713573	47.02084914968	0
499	714197	47.02584914968	0
499	715816	47.03084914968	0
499	716567	47.03584914968	0
499	718168	47.043687983185	0
499	719204	47.048687983185	0
499	720081	47.053687983185	0
499	722672	47.068674302521	0
499	723807	47.073674302521	0
499	727346	47.090621503636	0
499	728016	47.095621503636	0
499	729307	47.100621503636	0
499	730932	47.108769505892	0
499	731537	47.113769505892	0
499	733804	47.123486848203	0
499	734984	47.128486848203	0
499	735758	47.134325466568	0
499	736797	47.139325466568	0
499	739356	47.151852396278	0
499	739655	47.156852396278	0
499	740679	47.161863193121	0
499	741441	47.166863193121	0
499	742334	47.171863193121	0
499	743454	47.176863193121	0
499	743760	47.181863193121	0
499	744362	47.188266148791	0
499	744954	47.193266148791	0
499	745089	47.198266148791	0
499	746185	47.20672914968	0
499	746775	47.21172914968	0
499	747084	47.21677421661	0
499	747402	47.22177421661	0
499	749834	47.25140944276	0
499	749840	47.25640944276	0
499	750440	47.26140944276	0
499	750441	47.26640944276	0
499	750443	47.276163219349	0
499	750444	47.281163219349	0
499	750588	47.505	1
499	751521	47.51	46
499	753894	47.515	0
499	755385	47.52	0
499	758008	47.527940607701	12
499	758938	47.532940607701	0
499	760237	47.537940607701	0
499	763727	47.545531553421	89
499	766221	47.550531553421	82
499	768990	47.555531553421	56
499	772535	47.560531553421	77
499	775738	47.565531553421	17
499	778137	47.570531553421	86
499	780389	47.575531553421	58
499	782799	47.580531553421	50
499	784619	47.585531553421	75
499	787062	47.590531553421	107
499	788980	47.595531553421	77
499	790476	47.600531553421	43
499	792186	47.605531553421	0
499	793926	47.610531553421	36
499	795577	47.615531553421	27
499	797333	47.620531553421	79
499	798569	47.625531553421	81
499	799731	47.630531553421	0
499	802491	47.641667296402	17
499	803696	47.646667296402	0
499	805561	47.651667296402	75
499	807578	47.656667296402	37
499	808881	47.661667296402	0
499	809908	47.666667296402	0
499	811492	47.674220390912	34
499	812598	47.679220390912	52
499	813764	47.684220390912	0
499	814674	47.689220390912	0
499	816760	47.695160116813	18
499	818062	47.700160116813	0
499	820658	47.711614599085	22
499	822809	47.716614599085	70
499	823890	47.721614599085	0
499	828079	47.74006581494	0
499	829538	47.74506581494	0
499	830294	47.75006581494	0
499	831393	47.755807558902	0
499	832110	47.760807558902	0
499	833584	47.766175817855	0
499	834512	47.771175817855	0
499	835744	47.776449177121	0
499	836769	47.781449177121	0
499	841574	47.80706145667	0
499	842620	47.81206145667	0
499	843875	47.81706145667	0
499	845214	47.823629542779	0
499	846227	47.828629542779	0
499	847265	47.833629542779	0
499	849433	47.843157095191	0
499	850559	47.848157095191	0
499	851909	47.856779062095	0
499	852972	47.861779062095	0
499	853563	47.866779062095	0
499	855130	47.872296917796	0
499	856127	47.877296917796	0
499	857594	47.889034458016	0
499	858605	47.894034458016	0
499	860048	47.899034458016	0
499	860634	47.904034458016	0
499	862382	47.915891639082	0
499	863586	47.920891639082	0
499	866840	47.93939764791	0
499	867697	47.94439764791	0
499	868576	47.94939764791	0
499	869158	47.95439764791	0
499	869700	47.95939764791	0
499	871327	47.969975817855	0
499	872058	47.974975817855	0
499	873663	47.986927471646	0
499	874437	47.991927471646	0
499	876193	48.000736204102	0
499	877073	48.005736204102	0
499	877208	48.010939108547	0
499	878571	48.015939108547	0
499	879029	48.020939108547	0
499	879830	48.025939108547	0
499	880427	48.030939108547	0
499	881140	48.045533519412	0
499	881606	48.050533519412	0
499	882229	48.055533519412	0
499	882230	48.060533519412	0
499	882523	49.505	1
499	882661	49.51	0
499	885156	49.515734348804	95
499	887769	49.520734348804	0
499	890495	49.525781759301	1
499	892885	49.530781759301	41
499	895371	49.535781759301	67
499	897448	49.540781759301	36
499	899985	49.545781759301	55
499	902141	49.550781759301	4
499	905058	49.555781759301	115
499	907375	49.560781759301	84
499	910010	49.565781759301	102
499	912778	49.570781759301	46
499	914685	49.575781759301	24
499	916971	49.580781759301	35
499	919136	49.585781759301	38
499	921163	49.590781759301	38
499	922309	49.595781759301	21
499	924086	49.600781759301	31
499	924983	49.605781759301	0
499	926964	49.611334884893	25
499	928759	49.616334884893	37
499	929982	49.621334884893	13
499	932201	49.626334884893	79
499	933536	49.631334884893	3
499	935534	49.636334884893	47
499	936953	49.641334884893	20
499	938594	49.646334884893	18
499	940058	49.651334884893	0
499	941226	49.656334884893	0
499	942756	49.661994527657	1
499	944033	49.666994527657	0
499	945294	49.671994527657	41
499	946503	49.676994527657	0
499	949370	49.686092918806	11
499	950897	49.691092918806	16
499	952131	49.696092918806	0
499	953664	49.701092918806	73
499	955473	49.706092918806	44
499	956789	49.711092918806	0
499	958181	49.716092918806	0
499	958712	49.721092918806	0
499	960410	49.73042996175	0
499	961338	49.73542996175	0
499	962277	49.74042996175	0
499	963499	49.74542996175	0
499	964904	49.75042996175	0
499	966154	49.75542996175	0
499	968442	49.765365557441	0
499	969182	49.770365557441	0
499	970959	49.77583858459	0
499	972149	49.78083858459	0
499	976411	49.799356172373	0
499	977936	49.804356172373	0
499	979120	49.809356172373	0
499	980363	49.814356172373	0
499	981541	49.819356172373	0
499	982753	49.824356172373	0
499	984065	49.829356172373	0
499	985177	49.834356172373	0
499	985759	49.839356172373	0
499	986680	49.844356172373	0
499	988223	49.84946170703	0
499	989137	49.85446170703	0
499	991888	49.864471661449	0
499	992207	49.869471661449	0
499	993353	49.87450368414	0
499	995004	49.87950368414	0
499	996077	49.887495840671	0
499	997117	49.892495840671	0
499	997607	49.897495840671	0
499	998468	49.902495840671	0
499	999984	49.908455325036	0
499	1000738	49.913455325036	0
499	1001383	49.919340976459	0
499	1001892	49.924340976459	0
499	1002529	49.929340976459	0
499	1003301	49.934340976459	0
499	1003436	49.939340976459	0
499	1004220	49.955323309082	0
499	1005755	49.960323309082	0
499	1006400	49.965323309082	0
499	1006912	49.970323309082	0
499	1007533	49.989454611905	0
499	1007534	49.994454611905	0
499	1008428	50.013197988654	0
499	1008429	50.018197988654	0
499	1008554	50.505	1
499	1008567	50.51	0
499	1010417	50.516965392485	52
499	1011762	50.521965392485	42
499	1014669	50.526965392485	63
499	1016270	50.531965392485	50
499	1019097	50.536965392485	83
499	1022470	50.541965392485	70
499	1025610	50.546965392485	75
499	1028971	50.551965392485	87
499	1032238	50.556965392485	76
499	1034789	50.561965392485	73
499	1036882	50.566965392485	56
499	1038370	50.571965392485	55
499	1040194	50.576965392485	87
499	1041718	50.581965392485	53
499	1043281	50.586965392485	122
499	1044822	50.591965392485	82
499	1046658	50.596965392485	95
499	1047748	50.601965392485	11
499	1048721	50.606965392485	46
499	1049931	50.611965392485	11
499	1051110	50.616965392485	57
499	1052014	50.621965392485	0
499	1054121	50.634382872327	31
499	1055161	50.639382872327	35
499	1055775	50.644382872327	0
499	1057680	50.649382872327	92
499	1058731	50.654382872327	0
499	1060051	50.659382872327	28
499	1061626	50.664382872327	30
499	1062980	50.669382872327	0
499	1066051	50.679730796537	71
499	1067288	50.684730796537	41
499	1067891	50.689730796537	0
499	1069508	50.694730796537	0
499	1070627	50.699730796537	0
499	1070783	50.704730796537	0
499	1071921	50.709730796537	50
499	1072849	50.714730796537	0
499	1074033	50.719730796537	0
499	1076159	50.734958679893	0
499	1077853	50.739958679893	0
499	1078557	50.744958679893	0
499	1080310	50.759818623175	0
499	1080922	50.764818623175	0
499	1081789	50.769818623175	0
499	1083136	50.774818623175	0
499	1084265	50.779818623175	0
499	1084872	50.784818623175	0
499	1084873	50.789818623175	0
499	1086089	50.806342705742	0
499	1086090	50.811342705742	0
499	1086507	51.505	1
499	1087311	51.51	63
499	1089469	51.515	0
499	1091315	51.52	36
499	1093444	51.525	35
499	1095604	51.53	80
499	1098428	51.535	97
499	1101789	51.54	51
499	1105118	51.545	64
499	1107846	51.55	77
499	1110923	51.555	83
499	1113695	51.56	57
499	1115964	51.565	122
499	1117951	51.57	53
499	1119513	51.575	52
499	1121523	51.58	41
499	1123406	51.585	100
499	1125197	51.59	49
499	1126900	51.595	41
499	1128304	51.6	43
499	1129495	51.605	30
499	1131088	51.61	48
499	1132632	51.615	51
499	1134023	51.62	23
499	1135261	51.625	18
499	1136649	51.63	0
499	1138403	51.635	18
499	1139856	51.64	30
499	1141179	51.645	34
499	1143193	51.65	86
499	1145072	51.655	50
499	1147107	51.66	0
499	1148276	51.665	0
499	1148730	51.67	0
499	1149917	51.675031955682	57
499	1151145	51.680031955682	90
499	1152492	51.685031955682	0
499	1153565	51.690031955682	0
499	1156334	51.703750831434	18
499	1157415	51.708750831434	40
499	1158883	51.713750831434	0
499	1160230	51.718750831434	0
499	1160972	51.723750831434	0
499	1161641	51.728750831434	0
499	1162719	51.733750831434	0
499	1163822	51.738750831434	0
499	1164864	51.743750831434	0
499	1166690	51.74905067226	0
499	1167137	51.75405067226	0
499	1168925	51.759540968415	0
499	1170145	51.764540968415	0
499	1171133	51.769540968415	0
499	1173689	51.779285766771	0
499	1174300	51.784285766771	0
499	1175036	51.789285766771	0
499	1175799	51.794285766771	0
499	1177151	51.799285766771	0
499	1178100	51.804285766771	0
499	1178731	51.809285766771	0
499	1179932	51.814285766771	0
499	1180571	51.819285766771	0
499	1181661	51.824285766771	0
499	1182275	51.829285766771	0
499	1183527	51.837822545878	0
499	1183528	51.842822545878	0
499	1184068	52.505	1
499	1185370	52.51	93
499	1188024	52.515	34
499	1191365	52.52	21
499	1194645	52.525	81
499	1197782	52.53	66
499	1200707	52.535	63
499	1203624	52.54	38
499	1206596	52.545	78
499	1209197	52.55	33
499	1211881	52.555	87
499	1214341	52.56	45
499	1216965	52.565	23
499	1218894	52.57	24
499	1220508	52.575	36
499	1222222	52.58	23
499	1224024	52.585	34
499	1225365	52.59	24
499	1227355	52.595	2
499	1228882	52.6	0
499	1231380	52.605	60
499	1232754	52.61	0
499	1235226	52.615	1
499	1236641	52.62	0
499	1239475	52.630031959957	0
499	1240720	52.635031959957	42
499	1242167	52.640031959957	0
499	1244012	52.645031959957	0
499	1245708	52.651384551265	37
499	1247612	52.656384551265	0
499	1249841	52.663700311746	39
499	1251203	52.668700311746	0
499	1252883	52.674787142731	0
499	1253983	52.679787142731	0
499	1255297	52.684787142731	0
499	1257858	52.692722716188	0
499	1259216	52.697722716188	0
499	1260150	52.702722716188	0
499	1262044	52.707722716188	0
499	1263779	52.712722716188	0
499	1267322	52.720650827017	0
499	1269177	52.725650827017	0
499	1271320	52.733214186308	0
499	1272625	52.738214186308	0
499	1274579	52.743214186308	0
499	1276048	52.748214186308	0
499	1277769	52.755501949452	0
499	1278860	52.760501949452	0
499	1281126	52.768243963835	0
499	1282495	52.773243963835	0
499	1286243	52.787499217596	0
499	1288432	52.792499217596	0
499	1290051	52.797499217596	0
499	1291882	52.802499217596	0
499	1293113	52.807499217596	0
499	1295249	52.813959225023	0
499	1296440	52.818959225023	0
499	1297814	52.823959225023	0
499	1298973	52.828959225023	0
499	1300497	52.833959225023	0
499	1301603	52.839103813758	0
499	1303222	52.844103813758	0
499	1304507	52.849103813758	0
499	1306892	52.854103813758	0
499	1307799	52.859103813758	0
499	1312924	52.881849561012	0
499	1314425	52.886849561012	0
499	1317571	52.899202050369	0
499	1318793	52.904202050369	0
499	1320023	52.909202050369	0
499	1321490	52.914202050369	0
499	1323162	52.919202050369	0
499	1326471	52.929575575833	0
499	1327445	52.934575575833	0
499	1328400	52.939575575833	0
499	1330077	52.944575575833	0
499	1331719	52.949575575833	0
499	1333050	52.954575575833	0
499	1334364	52.959575575833	0
499	1334905	52.964575575833	0
499	1336503	52.971823240118	0
499	1337636	52.976823240118	0
499	1339166	52.982559587409	0
499	1340592	52.987559587409	0
499	1341695	52.992559587409	0
499	1343062	53.000120228012	0
499	1344517	53.005120228012	0
499	1345714	53.010120228012	0
499	1346478	53.015120228012	0
499	1349801	53.037027310767	0
499	1350569	53.042027310767	0
499	1351519	53.047027310767	0
499	1351991	53.052027310767	0
499	1354175	53.071179876491	0
499	1354951	53.076179876491	0
499	1355669	53.081179876491	0
499	1356179	53.087052070021	0
499	1356182	53.092052070021	0
499	1357581	53.100308073374	0
499	1358383	53.105308073374	0
499	1359048	53.112822664846	0