file 254864 1353341445                                          
version 2
run AODVScenario_1f-34-20121119-16:10:20-524
attr configname AODVScenario_1f
attr datetime 20121119-16:10:20
attr experiment AODVScenario_1f
attr inifile AODV.ini
attr iterationvars $numNodes=84
attr iterationvars2 "$numNodes=84, $repetition=0"
attr measurement $numNodes=84
attr network csma802154net
attr numNodes 84
attr processid 524
attr repetition 0
attr replication #0
attr resultdir results
attr runnumber 34
attr seedset 34

vector 347  csma802154net.dataCentricNetworkMan  RREQPacketFrequency  ETV
vector 348  csma802154net.dataCentricNetworkMan  RERRPacketFrequency  ETV
vector 349  csma802154net.dataCentricNetworkMan  DiscoveryPacketFrequency  ETV
vector 350  csma802154net.dataCentricNetworkMan  RegisterPacketFrequency  ETV
vector 351  csma802154net.dataCentricNetworkMan  RReplyPacketFrequency  ETV
vector 352  csma802154net.dataCentricNetworkMan  AODVDataPacketFrequency  ETV
vector 359  csma802154net.dataCentricNetworkMan  pendingRegistrationVector  ETV
vector 358  csma802154net.dataCentricNetworkMan  pendingRREQVector  ETV
vector 356  csma802154net.dataCentricNetworkMan  PendingDataPacketsVector  ETV
vector 363  csma802154net.fixhost[3].udpApp  "End-to-end delay"  ETV
vector 344  csma802154net.dataCentricNetworkMan  dataPacketE2EDelay  ETV
vector 372  csma802154net.fixhost[12].udpApp  "End-to-end delay"  ETV
vector 373  csma802154net.fixhost[13].udpApp  "End-to-end delay"  ETV
vector 368  csma802154net.fixhost[8].udpApp  "End-to-end delay"  ETV
vector 378  csma802154net.fixhost[18].udpApp  "End-to-end delay"  ETV
vector 370  csma802154net.fixhost[10].udpApp  "End-to-end delay"  ETV
vector 365  csma802154net.fixhost[5].udpApp  "End-to-end delay"  ETV
vector 381  csma802154net.fixhost[21].udpApp  "End-to-end delay"  ETV
vector 376  csma802154net.fixhost[16].udpApp  "End-to-end delay"  ETV
vector 366  csma802154net.fixhost[6].udpApp  "End-to-end delay"  ETV
vector 367  csma802154net.fixhost[7].udpApp  "End-to-end delay"  ETV
vector 369  csma802154net.fixhost[9].udpApp  "End-to-end delay"  ETV
344	2081 7058 647925 2131646 70.014716042483 7273.058460122555 156 0.011196042483 0.114316145728 6.406879667732 0.33786489560828
347	9139 37366 665 2131852 1.005 7273.068060108632 1309 0 99 1668 85514
348	46505 37328 665 2131852 1.005 7273.068060108632 1309 0 0 0 0
349	83833 37328 665 2131852 1.005 7273.068060108632 1309 0 0 0 0
350	121161 37328 665 2131852 1.005 7273.068060108632 1309 0 1 12 12
351	158489 37340 665 2131852 1.005 7273.068060108632 1309 0 84 1384 42706
352	195829 37344 665 2131852 1.005 7273.068060108632 1309 0 70 1306 33890
356	233173 12789 646774 2131646 70 7273.058460122555 416 0 3 520 1040
358	245962 1259 30741 584207 43.50001 54.568498215984 45 0 1 16 16
359	247221 585 30736 619193 43.5 54.740397015299 24 0 1 12 12
363	247806 592 647925 2114234 70.014716042483 7270.012476042483 13 0.011196042483 0.017596042483 0.175948552277 0.0024193431575688
365	248398 592 657051 2123121 72.029956086289 7272.026756086289 13 0.025796086289 0.050684086289 0.434933121752 0.015381743491459
366	248990 592 662945 2128822 73.029636087218 7273.029316087217 13 0.024836087218 0.072868087218 0.417261133828 0.015363596320926
367	249582 592 664465 2131646 73.039084122557 7273.058460122555 13 0.032436122556 0.072932122557 0.644421764962 0.033744518594024
368	250174 586 651262 2117568 71.036716067241 7271.022956067241 13 0.01975606724 0.036716067241 0.32501293137 0.0085103614459167
369	250760 586 665707 2130717 73.073892145339 7273.046372145338 13 0.046372145338 0.089852159085 0.835701971886 0.056168656564629
370	251346 588 653407 2119708 71.079732095373 7271.058932095371 13 0.036852095373 0.079732095373 0.693573267343 0.038583240349891
372	251934 576 648335 2114644 70.019476063529 7270.01595606353 13 0.01563606353 0.02107606353 0.234948825885 0.0042864780603576
373	252510 592 648751 2115059 70.024236084747 7270.019436084748 13 0.019116084748 0.026156084748 0.289789101717 0.0065189018056814
376	253102 578 659705 2124490 72.07030012164 7272.041892121637 13 0.03499612164 0.089748121638 0.782317581308 0.051965715776681
378	253680 592 652963 2119265 71.072052116996 7271.053244116995 13 0.026756116997 0.085028116997 0.72242152095 0.043933831712807
381	254272 592 658349 2125784 72.060524145728 7272.058604145728 13 0.036276145728 0.114316145728 0.850549894454 0.06098850832834
