version 2
run AODVScenario_1f-60-20121116-00:18:09-1804
attr configname AODVScenario_1f
attr datetime 20121116-00:18:09
attr experiment AODVScenario_1f
attr inifile AODV.ini
attr iterationvars $numNodes=110
attr iterationvars2 "$numNodes=110, $repetition=0"
attr measurement $numNodes=110
attr network csma802154net
attr numNodes 110
attr processid 1804
attr repetition 0
attr replication #0
attr resultdir results
attr runnumber 60
attr seedset 60

vector 451  csma802154net.dataCentricNetworkMan  RREQPacketFrequency  ETV
vector 452  csma802154net.dataCentricNetworkMan  RERRPacketFrequency  ETV
vector 453  csma802154net.dataCentricNetworkMan  DiscoveryPacketFrequency  ETV
vector 454  csma802154net.dataCentricNetworkMan  RegisterPacketFrequency  ETV
vector 455  csma802154net.dataCentricNetworkMan  RReplyPacketFrequency  ETV
vector 456  csma802154net.dataCentricNetworkMan  AODVDataPacketFrequency  ETV
vector 463  csma802154net.dataCentricNetworkMan  pendingRegistrationVector  ETV
vector 462  csma802154net.dataCentricNetworkMan  pendingRREQVector  ETV
vector 460  csma802154net.dataCentricNetworkMan  PendingDataPacketsVector  ETV
vector 473  csma802154net.fixhost[9].udpApp  "End-to-end delay"  ETV
vector 448  csma802154net.dataCentricNetworkMan  dataPacketE2EDelay  ETV
vector 477  csma802154net.fixhost[13].udpApp  "End-to-end delay"  ETV
vector 488  csma802154net.fixhost[24].udpApp  "End-to-end delay"  ETV
vector 471  csma802154net.fixhost[7].udpApp  "End-to-end delay"  ETV
vector 482  csma802154net.fixhost[18].udpApp  "End-to-end delay"  ETV
vector 474  csma802154net.fixhost[10].udpApp  "End-to-end delay"  ETV
vector 479  csma802154net.fixhost[15].udpApp  "End-to-end delay"  ETV
vector 475  csma802154net.fixhost[11].udpApp  "End-to-end delay"  ETV
vector 467  csma802154net.fixhost[3].udpApp  "End-to-end delay"  ETV
vector 468  csma802154net.fixhost[4].udpApp  "End-to-end delay"  ETV
vector 469  csma802154net.fixhost[5].udpApp  "End-to-end delay"  ETV
448	967415	70.016356016286	0.016356016286
448	969032	70.029004047593	0.029004047593
448	969552	70.07191606335	0.07191606335
448	973747	71.027116063784	0.027116063784
448	974881	71.033652114575	0.033652114575
448	975445	71.035644101107	0.035644101107
448	977337	72.014076047536	0.014076047536
448	977896	72.018164043172	0.018164043172
448	980971	73.024236065562	0.024236065562
448	982873	73.040084099101	0.040084099101
448	983977	73.063692117022	0.063692117022
448	1119733	670.007396016287	0.007396016287
448	1120824	670.015636047596	0.015636047596
448	1121869	670.023204063352	0.023204063352
448	1126081	671.021956101109	0.021956101109
448	1126879	671.024164063783	0.024164063783
448	1128589	671.052852114576	0.052852114576
448	1130490	672.010876047536	0.010876047536
448	1131049	672.016884043172	0.016884043172
448	1134351	673.021036065562	0.021036065562
448	1136834	673.0617720991	0.0617720991
448	1137384	673.081292117021	0.081292117021
448	1273140	1270.008356016287	0.008356016287
448	1274744	1270.020396063352	0.020396063352
448	1275279	1270.023564047595	0.023564047595
448	1279175	1271.025476101108	0.025476101108
448	1280295	1271.033692063784	0.033692063784
448	1281425	1271.047164114575	0.047164114575
448	1283575	1272.013436043172	0.013436043172
448	1284114	1272.038324047536	0.038324047536
448	1287195	1273.021996065562	0.021996065562
448	1289385	1273.035924099101	0.035924099101
448	1289934	1273.047124117022	0.047124117022
448	1425800	1870.008676016287	0.008676016287
448	1427408	1870.022636063353	0.022636063353
448	1427945	1870.032772047596	0.032772047596
448	1431243	1871.020396063784	0.020396063784
448	1433770	1871.052532114576	0.052532114576
448	1434339	1871.073332101109	0.073332101109
448	1436253	1872.011516043172	0.011516043172
448	1436783	1872.014004047536	0.014004047536
448	1439865	1873.02551606556	0.02551606556
448	1441647	1873.038164117019	0.038164117019
448	1447605	1873.188380099098	0.188380099098
448	1583334	2470.006756016287	0.006756016287
448	1584939	2470.038604047596	0.038604047596
448	1585984	2470.046812063353	0.046812063353
448	1589619	2471.022956063784	0.022956063784
448	1591338	2471.031412114576	0.031412114576
448	1591904	2471.034612101109	0.034612101109
448	1593815	2472.014076043172	0.014076043172
448	1594350	2472.020084047536	0.020084047536
448	1597658	2473.022956065562	0.022956065562
448	1599565	2473.0573640991	0.0573640991
448	1600668	2473.080652117021	0.080652117021
448	1736424	3070.008036016287	0.008036016287
448	1737515	3070.016916047596	0.016916047596
448	1738561	3070.026724063352	0.026724063352
448	1741862	3071.023916063784	0.023916063784
448	1743681	3071.051644101109	0.051644101109
448	1744963	3071.080620114575	0.080620114575
448	1746864	3072.012796047536	0.012796047536
448	1747423	3072.017524043172	0.017524043172
448	1750498	3073.022636065562	0.022636065562
448	1752281	3073.038164117021	0.038164117021
448	1755445	3073.1169160991	0.1169160991
448	1891854	3670.008036016287	0.008036016287
448	1892945	3670.015636047596	0.015636047596
448	1893990	3670.023844063352	0.023844063352
448	1898158	3671.023596063784	0.023596063784
448	1900124	3671.049084114576	0.049084114576
448	1900692	3671.055412101109	0.055412101109
448	1902580	3672.012156047536	0.012156047536
448	1903139	3672.015356043172	0.015356043172
448	1906213	3673.019436065561	0.019436065561
448	1908428	3673.0346440991	0.0346440991
448	1908973	3673.036884117021	0.036884117021
448	2044729	4270.008036016286	0.008036016286
448	2046337	4270.021676063352	0.021676063352
448	2046873	4270.027012047594	0.027012047594
448	2050196	4271.021676063784	0.021676063784
448	2052489	4271.065612142336	0.065612142336
448	2053052	4271.067780133242	0.067780133242
448	2054963	4272.012156043172	0.012156043172
448	2055497	4272.015604047536	0.015604047536
448	2058581	4273.022636065561	0.022636065561
448	2060361	4273.033044099098	0.033044099098
448	2061335	4273.037772117021	0.037772117021
448	2197091	4870.009636016287	0.009636016287
448	2198181	4870.018516047596	0.018516047596
448	2200007	4870.052572063351	0.052572063351
448	2203078	4871.023916063784	0.023916063784
448	2205336	4871.034364101107	0.034364101107
448	2205914	4871.039092114573	0.039092114573
448	2207834	4872.012476043172	0.012476043172
448	2208368	4872.018484047536	0.018484047536
448	2211448	4873.021356065562	0.021356065562
448	2214727	4873.059852099101	0.059852099101
448	2215835	4873.084100117022	0.084100117022
448	2351701	5470.007716016287	0.007716016287
448	2352791	5470.016276047596	0.016276047596
448	2354618	5470.052252063353	0.052252063353
448	2357939	5471.021996063784	0.021996063784
448	2360231	5471.06273214234	0.06273214234
448	2360798	5471.066820133245	0.066820133245
448	2362708	5472.012156043172	0.012156043172
448	2363236	5472.014076047536	0.014076047536
448	2366546	5473.022316065562	0.022316065562
448	2368751	5473.055764117022	0.055764117022
448	2369317	5473.058324099101	0.058324099101
448	2505594	6070.007076016287	0.007076016287
448	2506684	6070.014676047596	0.014676047596
448	2507730	6070.022884063353	0.022884063353
448	2511031	6071.023276063784	0.023276063784
448	2513300	6071.058964133245	0.058964133245
448	2513878	6071.06241214234	0.06241214234
448	2515798	6072.011516043172	0.011516043172
448	2516332	6072.017204047535	0.017204047535
448	2521181	6073.0337560991	0.0337560991
448	2521871	6073.038812065561	0.038812065561
448	2522997	6073.058644117021	0.058644117021
448	2658753	6670.009636016287	0.009636016287
448	2659843	6670.017556047596	0.017556047596
448	2660883	6670.024876063353	0.024876063353
448	2664634	6671.020396063783	0.020396063783
448	2666448	6671.028604114576	0.028604114576
448	2667017	6671.049972101109	0.049972101109
448	2668909	6672.014076047536	0.014076047536
448	2669468	6672.019764043172	0.019764043172
448	2673651	6673.027116065562	0.027116065562
448	2674883	6673.033364099101	0.033364099101
448	2675582	6673.057220117022	0.057220117022
448	2811449	7270.014756016286	0.014756016286
448	2812542	7270.024276047595	0.024276047595
448	2813585	7270.031524063352	0.031524063352
448	2817348	7271.026724063784	0.026724063784
448	2818894	7271.031484101107	0.031484101107
448	2819472	7271.036284114575	0.036284114575
448	2821392	7272.011516043172	0.011516043172
448	2821926	7272.016884047536	0.016884047536
448	2825006	7273.020396065561	0.020396065561
448	2827337	7273.0315160991	0.0315160991
448	2828037	7273.05665211702	0.05665211702
451	873	1.005	1
451	883	1.01	0
451	1928	1.018239186667	102
451	3659	1.023239186667	101
451	5922	1.028239186667	74
451	9140	1.033239186667	106
451	12173	1.038239186667	55
451	14949	1.043239186667	132
451	16883	1.048239186667	106
451	18886	1.053239186667	82
451	20159	1.058239186667	63
451	21643	1.063239186667	113
451	23527	1.068239186667	85
451	25229	1.073239186667	83
451	26379	1.078239186667	95
451	27025	1.083239186667	33
451	28349	1.088239186667	94
451	29686	1.093239186667	77
451	30584	1.098239186667	40
451	31941	1.103239186667	111
451	32579	1.108239186667	57
451	33309	1.113239186667	55
451	34279	1.118239186667	104
451	35127	1.123239186667	102
451	35916	1.128239186667	43
451	37193	1.133239186667	120
451	37938	1.138239186667	81
451	38543	1.143239186667	22
451	38952	1.148239186667	35
451	40030	1.153239186667	51
451	41255	1.158239186667	135
451	41708	1.163239186667	45
451	42240	1.168239186667	34
451	42914	1.173239186667	69
451	42915	1.178239186667	0
451	43839	1.189355450141	96
451	43843	1.194355450141	0
451	44446	1.202932948447	52
451	45227	1.207932948447	90
451	45756	1.212932948447	37
451	46056	1.217932948447	39
451	46057	1.222932948447	0
451	55622	43.505	1
451	55748	43.51	0
451	57259	43.51560370971	27
451	59023	43.52060370971	0
451	60170	43.52560370971	0
451	61431	43.532009105147	0
451	61949	43.537009105147	0
451	62841	43.542009105147	0
451	63517	43.547773352401	0
451	64420	43.552773352401	0
451	65058	43.557773352401	0
451	66270	43.562773352401	0
451	67415	43.567773352401	0
451	68816	43.575410936239	0
451	70036	43.580410936239	0
451	70793	43.585410936239	0
451	71739	43.590410936239	0
451	72629	43.595410936239	0
451	73531	43.600410936239	0
451	74161	43.605410936239	0
451	75544	43.611450187912	0
451	76570	43.616450187912	0
451	77214	43.621450187912	0
451	78352	43.627654891016	0
451	78963	43.632654891016	0
451	81074	43.643634206387	0
451	81964	43.648634206387	0
451	83010	43.654616492399	0
451	83797	43.659616492399	0
451	85077	43.664616492399	0
451	86104	43.669616492399	0
451	86614	43.674616492399	0
451	91799	43.701119530401	0
451	92429	43.706119530401	0
451	93587	43.71151098035	0
451	94120	43.71651098035	0
451	94765	43.72151098035	0
451	95726	43.72651098035	0
451	96989	43.73151098035	0
451	97855	43.73651098035	0
451	98840	43.742626186086	0
451	99622	43.747626186086	0
451	100135	43.75385993645	0
451	101149	43.75885993645	0
451	101787	43.76385993645	0
451	102407	43.76885993645	0
451	102942	43.77385993645	0
451	103445	43.77885993645	0
451	104341	43.784856937528	0
451	105355	43.789856937528	0
451	106139	43.794856937528	0
451	106668	43.799856937528	0
451	107278	43.804856937528	0
451	107776	43.809856937528	0
451	108160	43.814856937528	0
451	108686	43.819856937528	0
451	109338	43.829496506368	0
451	109753	43.834496506368	0
451	109754	43.839496506368	0
451	110107	44.505	1
451	111198	44.51	17
451	112736	44.515	0
451	113821	44.52	0
451	115313	44.526296376114	0
451	116080	44.531296376114	0
451	117081	44.536296376114	0
451	118185	44.541296376114	0
451	119329	44.546296376114	0
451	120107	44.551296376114	0
451	120494	44.556296376114	0
451	122612	44.569455642005	0
451	123243	44.574455642005	0
451	124246	44.579455642005	0
451	125125	44.584455642005	0
451	125742	44.589455642005	0
451	126621	44.594455642005	0
451	127147	44.599455642005	0
451	127788	44.604455642005	0
451	128667	44.609455642005	0
451	129197	44.614455642005	0
451	129806	44.619455642005	0
451	130454	44.624455642005	0
451	131464	44.641815383711	0
451	131589	44.646815383711	0
451	132515	44.652374664839	0
451	132516	44.657374664839	0
451	133528	44.676107911331	0
451	133529	44.681107911331	0
451	134786	44.718478680594	0
451	135300	44.723478680594	0
451	135301	44.728478680594	0
451	136329	44.738720059352	0
451	136330	44.743720059352	0
451	136826	44.752451932447	0
451	136827	44.757451932447	0
451	137064	45.505	1
451	137635	45.51	21
451	139125	45.515	0
451	140172	45.52	0
451	141318	45.525	0
451	142246	45.53	0
451	143495	45.535	0
451	144544	45.54	0
451	145692	45.546504821128	0
451	146574	45.551504821128	0
451	147486	45.556504821128	0
451	148019	45.561504821128	0
451	149635	45.570896850533	0
451	150886	45.575896850533	0
451	151263	45.580896850533	0
451	153020	45.589677183242	0
451	153425	45.594677183242	0
451	154955	45.604241966808	0
451	155830	45.609241966808	0
451	156807	45.614241966808	0
451	157966	45.619241966808	0
451	158467	45.624241966808	0
451	159221	45.630533555377	0
451	160116	45.635533555377	0
451	161001	45.640533555377	0
451	161791	45.645533555377	0
451	162293	45.650533555377	0
451	162933	45.657087433925	0
451	163559	45.662087433925	0
451	163949	45.667087433925	0
451	164733	45.672087433925	0
451	165988	45.677087433925	0
451	166630	45.682087433925	0
451	167136	45.687495225487	0
451	168059	45.692495225487	0
451	168711	45.697495225487	0
451	169608	45.702495225487	0
451	170124	45.707495225487	0
451	171182	45.718045850171	0
451	171188	45.723045850171	0
451	173172	45.742628183906	0
451	173174	45.747628183906	0
451	173177	45.752628183906	0
451	173688	45.757628183906	0
451	174223	45.762628183906	0
451	174725	45.767628183906	0
451	175233	45.772628183906	0
451	175760	45.786899790184	0
451	175761	45.791899790184	0
451	175989	46.505	1
451	176355	46.51	24
451	177484	46.515	0
451	178414	46.52	0
451	180004	46.525111178919	0
451	181025	46.530111178919	0
451	182112	46.535111178919	0
451	183476	46.540111178919	0
451	184840	46.545111178919	0
451	185869	46.550111178919	0
451	187584	46.559615205388	0
451	188808	46.564615205388	0
451	189769	46.569615205388	0
451	191347	46.574615205388	0
451	191980	46.579615205388	0
451	192920	46.585059129041	0
451	193834	46.590059129041	0
451	195145	46.595059129041	0
451	196246	46.600059129041	0
451	197139	46.605059129041	0
451	198399	46.613805589554	0
451	199303	46.618805589554	0
451	200499	46.626021081632	0
451	201025	46.631021081632	0
451	201674	46.636021081632	0
451	202616	46.641021081632	0
451	203345	46.646021081632	0
451	204757	46.651021081632	0
451	208032	46.668723411423	0
451	208947	46.673723411423	0
451	210297	46.678723411423	0
451	210941	46.683723411423	0
451	211993	46.696398206604	0
451	212121	46.701398206604	0
451	213234	46.707624059757	0
451	214275	46.712624059757	0
451	214912	46.717624059757	0
451	215035	46.722624059757	0
451	216130	46.728213093043	0
451	217245	46.733213093043	0
451	218184	46.738213093043	0
451	219227	46.750333117772	0
451	219860	46.755333117772	0
451	220408	46.760333117772	0
451	221291	46.765333117772	0
451	221808	46.770333117772	0
451	221928	46.775333117772	0
451	222333	46.780448085648	0
451	222884	46.785448085648	0
451	223648	46.790448085648	0
451	224443	46.795448085648	0
451	224976	46.800448085648	0
451	225235	46.805448085648	0
451	225637	46.810448085648	0
451	226570	46.816891468892	0
451	226571	46.821891468892	0
451	227086	46.837235491033	0
451	227591	46.842235491033	0
451	228613	46.877046735019	0
451	228614	46.882046735019	0
451	229142	46.890811579666	0
451	229143	46.895811579666	0
451	229371	47.505	1
451	229839	47.51	37
451	231240	47.515	0
451	232785	47.52	0
451	234523	47.525	0
451	235396	47.53	0
451	236675	47.535	0
451	238121	47.54	0
451	239599	47.545	0
451	240673	47.55	0
451	242050	47.555	0
451	243449	47.56	0
451	244612	47.565	0
451	245961	47.57	0
451	247121	47.575	0
451	249028	47.589786971394	0
451	250110	47.594786971394	0
451	251482	47.599786971394	0
451	253002	47.604786971394	0
451	254046	47.609786971394	0
451	254892	47.614786971394	0
451	255824	47.619786971394	0
451	257171	47.62525056797	0
451	258115	47.63025056797	0
451	259377	47.63705080042	0
451	260455	47.64205080042	0
451	261304	47.64705080042	0
451	262697	47.653065918497	0
451	263500	47.658065918497	0
451	265296	47.666400406208	0
451	266939	47.671400406208	0
451	268033	47.676400406208	0
451	269318	47.681400406208	0
451	270287	47.686400406208	0
451	270932	47.691400406208	0
451	272406	47.696690798031	0
451	273812	47.701690798031	0
451	274823	47.706690798031	0
451	276241	47.712302558794	0
451	277268	47.717302558794	0
451	278105	47.722302558794	0
451	278794	47.727302558794	0
451	279334	47.732302558794	0
451	280780	47.737706762348	0
451	281615	47.742706762348	0
451	282407	47.747706762348	0
451	283897	47.757413471712	0
451	284737	47.762413471712	0
451	285520	47.767413471712	0
451	287040	47.772413471712	0
451	287886	47.777413471712	0
451	288574	47.782413471712	0
451	289513	47.787413471712	0
451	290312	47.792413471712	0
451	291515	47.797413471712	0
451	292328	47.802413471712	0
451	293415	47.807413471712	0
451	294366	47.812413471712	0
451	295155	47.817413471712	0
451	296513	47.822413471712	0
451	297408	47.827413471712	0
451	297825	47.832413471712	0
451	297826	47.837413471712	0
451	299058	47.848032665183	0
451	300362	47.853032665183	0
451	301027	47.858032665183	0
451	301560	47.863032665183	0
451	301564	47.868032665183	0
451	302847	47.883285139686	0
451	303398	47.888285139686	0
451	303402	47.893285139686	0
451	304930	47.910904705676	0
451	305762	47.915904705676	0
451	306187	47.922053298355	0
451	306188	47.927053298355	0
451	306416	48.505	1
451	306423	48.51	0
451	308490	48.518738984204	47
451	310214	48.523738984204	0
451	311776	48.528738984204	0
451	314060	48.533738984204	0
451	315404	48.538738984204	0
451	316850	48.543738984204	0
451	318799	48.548738984204	0
451	319921	48.553738984204	0
451	322285	48.567246223549	0
451	323917	48.572246223549	0
451	325552	48.577246223549	0
451	326875	48.582246223549	0
451	329073	48.591841953622	0
451	330030	48.596841953622	0
451	332549	48.606401633482	0
451	333662	48.611401633482	0
451	334731	48.616401633482	0
451	336876	48.62562510446	0
451	338090	48.63062510446	0
451	339057	48.63562510446	0
451	343645	48.652679304271	0
451	344887	48.657679304271	0
451	346280	48.662679304271	0
451	347378	48.667679304271	0
451	349610	48.676042268662	0
451	350870	48.681042268662	0
451	351981	48.686042268662	0
451	353117	48.691042268662	0
451	354225	48.696042268662	0
451	355548	48.701042268662	0
451	356745	48.706042268662	0
451	358051	48.711042268662	0
451	359086	48.716042268662	0
451	360167	48.721042268662	0
451	362060	48.726042268662	0
451	362994	48.731042268662	0
451	364196	48.736042268662	0
451	366006	48.745450388534	0
451	367229	48.750450388534	0
451	368051	48.755450388534	0
451	369462	48.760450388534	0
451	370851	48.765985664438	0
451	371994	48.770985664438	0
451	372981	48.775985664438	0
451	373941	48.780985664438	0
451	374939	48.785985664438	0
451	376134	48.790985664438	0
451	377346	48.795985664438	0
451	378507	48.800985664438	0
451	379570	48.805985664438	0
451	380659	48.810985664438	0
451	381640	48.815985664438	0
451	382494	48.820985664438	0
451	383966	48.825985664438	0
451	385164	48.831695827382	0
451	386497	48.836695827382	0
451	388008	48.841695827382	0
451	388555	48.846695827382	0
451	389898	48.853809677338	0
451	391074	48.858809677338	0
451	393333	48.874866994433	0
451	394916	48.879866994433	0
451	395784	48.884866994433	0
451	396840	48.889866994433	0
451	397847	48.894866994433	0
451	398530	48.899866994433	0
451	399367	48.904866994433	0
451	400555	48.909866994433	0
451	401341	48.914866994433	0
451	402710	48.919866994433	0
451	402989	48.924866994433	0
451	403808	48.93162732136	0
451	404764	48.93662732136	0
451	405741	48.94162732136	0
451	406543	48.94662732136	0
451	408183	48.962481188845	0
451	408186	48.967481188845	0
451	409877	48.98316968755	0
451	410818	48.98816968755	0
451	411387	48.99316968755	0
451	412333	48.99816968755	0
451	413110	49.00316968755	0
451	413792	49.010002566936	0
451	414243	49.015002566936	0
451	414244	49.020002566936	0
451	414811	49.03174096452	0
451	415391	49.03674096452	0
451	415957	49.044238004592	0
451	415958	49.049238004592	0
451	416117	49.505	1
451	416973	49.51	35
451	418893	49.515	0
451	420570	49.52	0
451	422206	49.525	0
451	424705	49.537549751279	0
451	425613	49.542549751279	0
451	427014	49.547549751279	0
451	429024	49.556323629297	0
451	429994	49.561323629297	0
451	431339	49.566323629297	0
451	432300	49.571323629297	0
451	434332	49.580640410941	0
451	435242	49.585640410941	0
451	436168	49.590640410941	0
451	437741	49.599811316731	0
451	438819	49.604811316731	0
451	440807	49.618340137711	0
451	441777	49.623340137711	0
451	442803	49.628340137711	0
451	444847	49.637938899938	0
451	445942	49.642938899938	0
451	448169	49.652770462833	0
451	449450	49.657770462833	0
451	451615	49.668816214247	0
451	452381	49.673816214247	0
451	453701	49.679736244287	0
451	454521	49.684736244287	0
451	457667	49.705747656257	0
451	458576	49.710747656257	0
451	459556	49.715747656257	0
451	460628	49.720747656257	0
451	463021	49.73106804564	0
451	463647	49.73606804564	0
451	464946	49.74142350072	0
451	465882	49.74642350072	0
451	467216	49.753774337012	0
451	468545	49.758774337012	0
451	469589	49.763774337012	0
451	471009	49.768774337012	0
451	471927	49.773774337012	0
451	473037	49.778774337012	0
451	473699	49.783774337012	0
451	474795	49.78887005937	0
451	476221	49.79387005937	0
451	477378	49.79887005937	0
451	478424	49.803890772792	0
451	478847	49.808890772792	0
451	479990	49.814545925948	0
451	481149	49.819545925948	0
451	482115	49.824545925948	0
451	482512	49.829545925948	0
451	483267	49.834545925948	0
451	483659	49.839545925948	0
451	484689	49.844545925948	0
451	485528	49.849545925948	0
451	487158	49.860002487076	0
451	487421	49.865002487076	0
451	488625	49.871527529909	0
451	488626	49.876527529909	0
451	489410	49.898254475636	0
451	489934	49.903254475636	0
451	492243	49.925015578431	0
451	493072	49.930015578431	0
451	493219	49.935015578431	0
451	494314	49.947813879648	0
451	494315	49.952813879648	0
451	494560	50.505	1
451	494887	50.51	0
451	496754	50.515003851868	46
451	499151	50.520003851868	0
451	501625	50.525003851868	0
451	503189	50.530003851868	0
451	504542	50.535003851868	0
451	505611	50.540003851868	0
451	507544	50.546699358128	0
451	508761	50.551699358128	0
451	510755	50.558924863085	0
451	512483	50.563924863085	0
451	513953	50.568924863085	0
451	515249	50.573924863085	0
451	516787	50.580371343968	0
451	518492	50.585371343968	0
451	519943	50.590371343968	0
451	521579	50.595927475764	0
451	522622	50.600927475764	0
451	524296	50.610016849536	0
451	525406	50.615016849536	0
451	527379	50.620016849536	0
451	529587	50.626743895369	0
451	530885	50.631743895369	0
451	533001	50.639297605341	0
451	534475	50.644297605341	0
451	535778	50.649297605341	0
451	536928	50.654297605341	0
451	540057	50.664288874631	0
451	541284	50.669288874631	0
451	542531	50.674288874631	0
451	543880	50.679288874631	0
451	548613	50.696553254452	0
451	549827	50.701553254452	0
451	551299	50.706553254452	0
451	552506	50.711553254452	0
451	556118	50.726281359849	0
451	557161	50.731281359849	0
451	559195	50.738324568802	0
451	561096	50.743324568802	0
451	562481	50.748324568802	0
451	563428	50.753324568802	0
451	564904	50.758980974763	0
451	566493	50.763980974763	0
451	568531	50.773946120205	0
451	569194	50.778946120205	0
451	570150	50.783946120205	0
451	571219	50.788946120205	0
451	572673	50.793946120205	0
451	573543	50.798946120205	0
451	574572	50.803946120205	0
451	575816	50.809303152679	0
451	577115	50.814303152679	0
451	578488	50.824861550825	0
451	579990	50.829861550825	0
451	580965	50.834861550825	0
451	582263	50.839861550825	0
451	583341	50.844861550825	0
451	584687	50.850421570952	0
451	585637	50.855421570952	0
451	586301	50.860421570952	0
451	587490	50.865421570952	0
451	589323	50.870421570952	0
451	590194	50.875421570952	0
451	591403	50.880421570952	0
451	592842	50.885421570952	0
451	593635	50.890421570952	0
451	595207	50.895421570952	0
451	595904	50.902436669531	0
451	597018	50.907436669531	0
451	597846	50.912436669531	0
451	599095	50.918791924011	0
451	599852	50.923791924011	0
451	601011	50.937842712847	0
451	601661	50.942842712847	0
451	602923	50.94910570614	0
451	603447	50.95410570614	0
451	603451	50.973238836326	0
451	604204	50.978238836326	0
451	605668	51.000512949444	0
451	606674	51.005512949444	0
451	606681	51.010512949444	0
451	607259	51.017620117098	0
451	607260	51.022620117098	0
451	607802	51.067000935065	0
451	607803	51.072000935065	0
451	607831	51.505	1
451	607957	51.51	0
451	610053	51.516583904655	42
451	611941	51.521583904655	0
451	613059	51.526583904655	0
451	614183	51.531981080041	0
451	615020	51.536981080041	0
451	616174	51.541981080041	0
451	617785	51.546981080041	0
451	619790	51.555044728626	0
451	620675	51.560044728626	0
451	621207	51.565044728626	0
451	622601	51.570802702739	0
451	624175	51.575802702739	0
451	625496	51.580802702739	0
451	631207	51.608295150565	0
451	632674	51.613295150565	0
451	633508	51.618295150565	0
451	636960	51.636532700814	0
451	638359	51.641532700814	0
451	640523	51.648807885165	0
451	641772	51.653807885165	0
451	642596	51.658807885165	0
451	644037	51.664393593654	0
451	645506	51.669393593654	0
451	646588	51.674393593654	0
451	648134	51.681128641083	0
451	649611	51.686128641083	0
451	650983	51.691128641083	0
451	651760	51.696128641083	0
451	653238	51.701460691212	0
451	654368	51.706460691212	0
451	656317	51.71258847464	0
451	657438	51.71758847464	0
451	658537	51.72258847464	0
451	660252	51.72758847464	0
451	661707	51.73258847464	0
451	662563	51.73758847464	0
451	663609	51.74258847464	0
451	664640	51.74758847464	0
451	665876	51.75258847464	0
451	666755	51.75758847464	0
451	668516	51.767203886191	0
451	669435	51.772203886191	0
451	670662	51.777203886191	0
451	671816	51.782203886191	0
451	673040	51.787203886191	0
451	674365	51.792203886191	0
451	676512	51.80283735899	0
451	677439	51.80783735899	0
451	678416	51.81283735899	0
451	679454	51.81783735899	0
451	680960	51.827271100555	0
451	681642	51.832271100555	0
451	682488	51.837271100555	0
451	683450	51.842271100555	0
451	684515	51.847271100555	0
451	685909	51.852271100555	0
451	686692	51.857271100555	0
451	687663	51.863298023304	0
451	688368	51.868298023304	0
451	689468	51.873298023304	0
451	690157	51.878298023304	0
451	691335	51.885163909743	0
451	691770	51.890163909743	0
451	691772	51.895163909743	0
451	693024	51.90334034086	0
451	693473	51.90834034086	0
451	694141	51.91334034086	0
451	695143	51.91834034086	0
451	695696	51.92334034086	0
451	696217	51.936664563575	0
451	696218	51.941664563575	0
451	696792	51.95714457711	0
451	696793	51.96214457711	0
451	697054	52.505	1
451	697686	52.51	40
451	700152	52.515	0
451	701555	52.52	0
451	703540	52.525760184488	0
451	705222	52.530760184488	0
451	706085	52.535760184488	0
451	707680	52.540760184488	0
451	709159	52.545760184488	0
451	711058	52.550760184488	0
451	713279	52.561849926584	0
451	714638	52.566849926584	0
451	715634	52.571849926584	0
451	716724	52.576849926584	0
451	717924	52.581849926584	0
451	719384	52.588796986763	0
451	720303	52.593796986763	0
451	721714	52.598796986763	0
451	723571	52.606621255038	0
451	724692	52.611621255038	0
451	726567	52.618717216154	0
451	727788	52.623717216154	0
451	729097	52.628717216154	0
451	730161	52.634710739206	0
451	731206	52.639710739206	0
451	732222	52.64513162651	0
451	733264	52.65013162651	0
451	736028	52.662861012495	0
451	737117	52.667861012495	0
451	737991	52.672861012495	0
451	739538	52.678554832256	0
451	740492	52.683554832256	0
451	741421	52.688554832256	0
451	743581	52.698616312865	0
451	744681	52.703616312865	0
451	745869	52.708616312865	0
451	747437	52.713616312865	0
451	748137	52.718616312865	0
451	749344	52.723616312865	0
451	750577	52.731263643726	0
451	751652	52.736263643726	0
451	752735	52.741263643726	0
451	753801	52.746818843179	0
451	754943	52.751818843179	0
451	757325	52.76051306146	0
451	758289	52.76551306146	0
451	759432	52.77051306146	0
451	760660	52.775792559602	0
451	761845	52.780792559602	0
451	762679	52.785792559602	0
451	764708	52.793032813203	0
451	766095	52.798032813203	0
451	767035	52.803032813203	0
451	768348	52.808032813203	0
451	769676	52.813032813203	0
451	770501	52.818032813203	0
451	773084	52.831902086622	0
451	773736	52.836902086622	0
451	774808	52.843666810897	0
451	775514	52.848666810897	0
451	776321	52.853666810897	0
451	777519	52.861120917918	0
451	778319	52.866120917918	0
451	778683	52.871120917918	0
451	779777	52.876266825879	0
451	780486	52.881266825879	0
451	781534	52.886266825879	0
451	782730	52.891266825879	0
451	783152	52.896266825879	0
451	783684	52.901266825879	0
451	783693	52.906266825879	0
451	784846	52.913669314816	0
451	785480	52.918669314816	0
451	787509	52.930992586299	0
451	788313	52.935992586299	0
451	789559	52.94627290015	0
451	789994	52.95127290015	0
451	790565	52.95627290015	0
451	792124	52.969171826572	0
451	792125	52.974171826572	0
451	794329	52.993711520023	0
451	794330	52.998711520023	0
451	795124	53.010287586771	0
451	795125	53.015287586771	0
451	795578	53.505	21
451	796756	53.51	0
451	798437	53.515	0
451	799836	53.52	0
451	801022	53.525	0
451	802253	53.53	0
451	803227	53.535007984931	0
451	804563	53.540007984931	0
451	806040	53.545007984931	0
451	807261	53.550007984931	0
451	808552	53.555007984931	0
451	809765	53.560007984931	0
451	811711	53.565007984931	0
451	812636	53.570007984931	0
451	814036	53.575007984931	0
451	815564	53.580007984931	0
451	816483	53.585007984931	0
451	818435	53.591698077878	0
451	819521	53.596698077878	0
451	820388	53.601698077878	0
451	821369	53.606698077878	0
451	822721	53.611698077878	0
451	824228	53.616698077878	0
451	825310	53.621698077878	0
451	827347	53.634636234665	0
451	828505	53.639636234665	0
451	829873	53.644968715789	0
451	831022	53.649968715789	0
451	831945	53.654968715789	0
451	832887	53.659968715789	0
451	833424	53.664968715789	0
451	833977	53.669968715789	0
451	834636	53.674968715789	0
451	835217	53.679968715789	0
451	836156	53.684968715789	0
451	836865	53.689968715789	0
451	837764	53.695260206702	0
451	838027	53.700260206702	0
451	839668	53.726442941919	0
451	840229	53.731442941919	0
451	840236	53.736442941919	0
451	841559	53.754155843573	0
451	841561	53.759155843573	0
451	842620	53.775015429027	0