file 211167 1353023541                                          
version 2
run AODVScenario_1f-3-20121115-23:52:07-3888
attr configname AODVScenario_1f
attr datetime 20121115-23:52:07
attr experiment AODVScenario_1f
attr inifile AODV.ini
attr iterationvars $numNodes=53
attr iterationvars2 "$numNodes=53, $repetition=0"
attr measurement $numNodes=53
attr network csma802154net
attr numNodes 53
attr processid 3888
attr repetition 0
attr replication #0
attr resultdir results
attr runnumber 3
attr seedset 3

vector 223  csma802154net.dataCentricNetworkMan  RREQPacketFrequency  ETV
vector 224  csma802154net.dataCentricNetworkMan  RERRPacketFrequency  ETV
vector 225  csma802154net.dataCentricNetworkMan  DiscoveryPacketFrequency  ETV
vector 226  csma802154net.dataCentricNetworkMan  RegisterPacketFrequency  ETV
vector 227  csma802154net.dataCentricNetworkMan  RReplyPacketFrequency  ETV
vector 228  csma802154net.dataCentricNetworkMan  AODVDataPacketFrequency  ETV
vector 235  csma802154net.dataCentricNetworkMan  pendingRegistrationVector  ETV
vector 234  csma802154net.dataCentricNetworkMan  pendingRREQVector  ETV
vector 232  csma802154net.dataCentricNetworkMan  PendingDataPacketsVector  ETV
vector 247  csma802154net.fixhost[11].udpApp  "End-to-end delay"  ETV
vector 220  csma802154net.dataCentricNetworkMan  dataPacketE2EDelay  ETV
vector 255  csma802154net.fixhost[19].udpApp  "End-to-end delay"  ETV
vector 249  csma802154net.fixhost[13].udpApp  "End-to-end delay"  ETV
vector 250  csma802154net.fixhost[14].udpApp  "End-to-end delay"  ETV
vector 244  csma802154net.fixhost[8].udpApp  "End-to-end delay"  ETV
vector 252  csma802154net.fixhost[16].udpApp  "End-to-end delay"  ETV
vector 245  csma802154net.fixhost[9].udpApp  "End-to-end delay"  ETV
vector 251  csma802154net.fixhost[15].udpApp  "End-to-end delay"  ETV
vector 262  csma802154net.fixhost[26].udpApp  "End-to-end delay"  ETV
vector 240  csma802154net.fixhost[4].udpApp  "End-to-end delay"  ETV
vector 242  csma802154net.fixhost[6].udpApp  "End-to-end delay"  ETV
vector 239  csma802154net.fixhost[3].udpApp  "End-to-end delay"  ETV
220	2081 6966 351467 1251462 70.008356016808 7273.051964092147 156 0.006436016809 0.089796094564 4.576923161348 0.17726907662045
223	9047 30149 609 1251620 1.005 7273.061964092147 1082 0 47 803 24915
224	39196 30121 609 1251620 1.005 7273.061964092147 1082 0 0 0 0
225	69317 30121 609 1251620 1.005 7273.061964092147 1082 0 0 0 0
226	99438 30121 609 1251620 1.005 7273.061964092147 1082 0 1 12 12
227	129559 30133 609 1251620 1.005 7273.061964092147 1082 0 72 1101 30633
228	159692 30136 609 1251620 1.005 7273.061964092147 1082 0 69 989 25995
232	189828 12631 350969 1251462 70 7273.051964092147 416 0 3 520 1040
234	202459 1161 12656 326697 43.50001 54.643514383142 42 0 1 17 17
235	203620 581 12651 348974 43.5 54.937049892531 24 0 1 12 12
239	204201 582 360313 1250796 73.070596078241 7273.027964078241 13 0.025796078241 0.070596078241 0.454501176374 0.017547931968306
240	204783 586 359689 1251462 73.051252092148 7273.051964092147 13 0.027396092148 0.059572092146 0.524845197918 0.022945229094208
242	205369 558 360007 1251159 73.0553721191 7273.030236119098 13 0.030236119098 0.0822521191 0.635565640505 0.033867931714
244	205927 578 354493 1244228 71.046500044231 7271.01631604423 13 0.010556044231 0.046500044231 0.332556574999 0.010168978106437
245	206505 584 355832 1246572 72.075196037831 7272.013756037831 13 0.011196037832 0.075196037831 0.243148491809 0.0080442554052381
247	207089 586 351467 1242064 70.008356016808 7270.009636016808 13 0.006436016809 0.015396016809 0.111828218514 0.0010220033273834
249	207675 586 352324 1242926 70.018836054436 7270.021644054436 13 0.015316054438 0.043404054438 0.274516707686 0.0064344460959193
250	208261 586 353893 1244822 71.019084070457 7271.021964070456 13 0.017236070456 0.071420070456 0.428492915932 0.017499268524035
251	208847 586 356713 1247453 72.087596069127 7272.023276069127 13 0.021356069128 0.087596069127 0.415116898654 0.0172186900477
252	209433 578 354800 1245269 71.05200408774 7271.047204087739 13 0.020396087739 0.05385208774 0.422189140608 0.01565235038896
255	210011 570 352045 1242646 70.015956074539 7270.018836074539 13 0.01403607454 0.02676407454 0.242660969015 0.0046831435836477
262	210581 586 357019 1247893 72.089796094564 7272.048124094564 13 0.023876094565 0.089796094564 0.491501229334 0.022184848364617
