file 54506 1349349116                                           
version 2
run AODVScenario_1e-0-20121004-12:08:42-708
attr configname AODVScenario_1e
attr datetime 20121004-12:08:42
attr experiment AODVScenario_1e
attr inifile omnetpp.ini
attr iterationvars ""
attr iterationvars2 $repetition=0
attr measurement ""
attr network csma802154net
attr processid 708
attr repetition 0
attr replication #0
attr resultdir results
attr runnumber 0
attr seedset 0

vector 386  csma802154net.dataCentricNetworkMan  RREQPacketFrequency  ETV
vector 387  csma802154net.dataCentricNetworkMan  DiscoveryPacketFrequency  ETV
vector 388  csma802154net.dataCentricNetworkMan  RegisterPacketFrequency  ETV
vector 389  csma802154net.dataCentricNetworkMan  RReplyPacketFrequency  ETV
vector 390  csma802154net.dataCentricNetworkMan  AODVDataPacketFrequency  ETV
vector 404  csma802154net.fixhost[12].udpApp  "End-to-end delay"  ETV
vector 383  csma802154net.dataCentricNetworkMan  dataPacketE2EDelay  ETV
vector 409  csma802154net.fixhost[17].udpApp  "End-to-end delay"  ETV
vector 401  csma802154net.fixhost[9].udpApp  "End-to-end delay"  ETV
vector 402  csma802154net.fixhost[10].udpApp  "End-to-end delay"  ETV
vector 408  csma802154net.fixhost[16].udpApp  "End-to-end delay"  ETV
vector 412  csma802154net.fixhost[20].udpApp  "End-to-end delay"  ETV
vector 411  csma802154net.fixhost[19].udpApp  "End-to-end delay"  ETV
vector 398  csma802154net.fixhost[6].udpApp  "End-to-end delay"  ETV
vector 403  csma802154net.fixhost[11].udpApp  "End-to-end delay"  ETV
383	1509 381 87226 229708 71.18612406671 75.848960284293 9 0.098804067257 5.787168301899 20.849817759425 94.7255856068
386	1890 10571 11001 296514 40.005 80.01 365 0 220 8007 720361
387	12461 10415 11001 296514 40.005 80.01 365 0 0 0 0
388	22876 10415 11001 296514 40.005 80.01 365 0 1 12 12
389	33291 10417 11001 296514 40.005 80.01 365 0 46 102 3366
390	43708 10417 11001 296514 40.005 80.01 365 0 46 123 3389
398	54125 43 228193 228193 75.787168301899 75.787168301899 1 5.787168301899 5.787168301899 5.787168301899 33.491316954505
401	54168 43 100068 100068 71.412329483252 71.412329483252 1 0.412329483252 0.412329483252 0.412329483252 0.17001560275886
402	54211 43 108151 108151 72.098804067257 72.098804067257 1 0.098804067257 0.098804067257 0.098804067257 0.0097622437065258
403	54254 43 229708 229708 75.848960284293 75.848960284293 1 3.848960284293 3.848960284293 3.848960284293 14.814495270065
404	54297 40 87226 87226 71.18612406671 71.18612406671 1 0.18612406671 0.18612406671 0.18612406671 0.034642168208669
408	54337 41 143780 143780 72.82479504131 72.82479504131 1 0.82479504131 0.82479504131 0.82479504131 0.68028686016956
409	54378 42 87934 87934 71.208772103752 71.208772103752 1 0.208772103752 0.208772103752 0.208772103752 0.043585791305036
411	54420 43 209508 209508 75.250903498991 75.250903498991 1 5.250903498991 5.250903498991 5.250903498991 27.571987555716
412	54463 43 188050 188050 74.231960911961 74.231960911961 1 4.231960911961 4.231960911961 4.231960911961 17.909493160366
