file 214102 1353497957                                          
version 2
run AODVScenario_1f-10-20121121-11:39:03-3896
attr configname AODVScenario_1f
attr datetime 20121121-11:39:03
attr experiment AODVScenario_1f
attr inifile AODV.ini
attr iterationvars $numNodes=60
attr iterationvars2 "$numNodes=60, $repetition=0"
attr measurement $numNodes=60
attr network csma802154net
attr numNodes 60
attr processid 3896
attr repetition 0
attr replication #0
attr resultdir results
attr runnumber 10
attr seedset 10

vector 251  csma802154net.dataCentricNetworkMan  RREQPacketFrequency  ETV
vector 252  csma802154net.dataCentricNetworkMan  RERRPacketFrequency  ETV
vector 253  csma802154net.dataCentricNetworkMan  DiscoveryPacketFrequency  ETV
vector 254  csma802154net.dataCentricNetworkMan  RegisterPacketFrequency  ETV
vector 255  csma802154net.dataCentricNetworkMan  RReplyPacketFrequency  ETV
vector 256  csma802154net.dataCentricNetworkMan  AODVDataPacketFrequency  ETV
vector 263  csma802154net.dataCentricNetworkMan  pendingRegistrationVector  ETV
vector 262  csma802154net.dataCentricNetworkMan  pendingRREQVector  ETV
vector 260  csma802154net.dataCentricNetworkMan  PendingDataPacketsVector  ETV
vector 288  csma802154net.fixhost[24].udpApp  "End-to-end delay"  ETV
vector 248  csma802154net.dataCentricNetworkMan  dataPacketE2EDelay  ETV
vector 289  csma802154net.fixhost[25].udpApp  "End-to-end delay"  ETV
vector 279  csma802154net.fixhost[15].udpApp  "End-to-end delay"  ETV
vector 280  csma802154net.fixhost[16].udpApp  "End-to-end delay"  ETV
vector 285  csma802154net.fixhost[21].udpApp  "End-to-end delay"  ETV
vector 269  csma802154net.fixhost[5].udpApp  "End-to-end delay"  ETV
vector 270  csma802154net.fixhost[6].udpApp  "End-to-end delay"  ETV
vector 274  csma802154net.fixhost[10].udpApp  "End-to-end delay"  ETV
vector 265  csma802154net.fixhost[1].udpApp  "End-to-end delay"  ETV
vector 266  csma802154net.fixhost[2].udpApp  "End-to-end delay"  ETV
vector 267  csma802154net.fixhost[3].udpApp  "End-to-end delay"  ETV
248	2013 6373 337178 1391349 70.009916035644 7273.086972180695 143 0.009916035644 0.117268151227 5.920252518817 0.3087968985152
251	8386 30985 473 1391517 1.005 7273.096572165437 1113 0 73 905 33501
252	39371 30957 473 1391517 1.005 7273.096572165437 1113 0 0 0 0
253	70328 30957 473 1391517 1.005 7273.096572165437 1113 0 0 0 0
254	101285 30957 473 1391517 1.005 7273.096572165437 1113 0 1 12 12
255	132242 30969 473 1391517 1.005 7273.096572165437 1113 0 66 1026 25106
256	163211 30972 473 1391517 1.005 7273.096572165437 1113 0 61 1079 20559
260	194183 11804 336325 1391349 70 7273.086972180695 390 0 3 455 871
262	205987 1192 15915 291323 43.50001 54.52031551085 43 0 1 16 16
263	207179 550 15910 333122 43.5 54.89889988454 23 1 2 34 56
265	207729 587 347422 1389879 73.029596098228 7273.048260098226 13 0.027996098225 0.062340098228 0.472101276956 0.018287171610426
266	208316 585 348697 1388746 73.064932155341 7273.03211615534 13 0.030556122151 0.073540122149 0.677053720718 0.037838475983692
267	208901 587 349357 1391349 73.080892180696 7273.086972180695 13 0.040364151227 0.117268151227 0.964950080101 0.076340226735607
269	209488 543 342822 1384098 72.01595605862 7272.01595605862 13 0.01595605862 0.036996125 0.286029127148 0.0068181050096024
270	210031 583 343911 1385685 72.028604101824 7272.039764135013 13 0.028604101824 0.056724135014 0.528445757667 0.022430723878548
274	210614 579 344866 1386013 72.059212139325 7272.0515641607 13 0.038484139325 0.07456418076 0.713238122614 0.040418095548649
279	211193 585 339616 1381487 71.02611607685 7271.038196136184 13 0.024836076852 0.064012106517 0.437341325393 0.015960375450105
280	211778 583 340804 1382084 71.068772140917 7271.04480415087 13 0.034676121204 0.068772140917 0.622469763028 0.031311446239446
285	212361 581 341412 1382688 71.078260163999 7271.050524173952 13 0.044732163997 0.091700163999 0.800366055525 0.052449333391786
288	212942 587 337178 1378597 70.009916035644 7270.015356035645 13 0.009916035644 0.016316035645 0.179788463381 0.0025239631050051
289	213529 573 337470 1378888 70.01435606356 7270.019156063561 13 0.01435606356 0.021076063561 0.238468826286 0.0044189815623371
