version 2
run AODVScenario_1f-48-20121119-11:23:23-136
attr configname AODVScenario_1f
attr datetime 20121119-11:23:23
attr experiment AODVScenario_1f
attr inifile AODV.ini
attr iterationvars $numNodes=98
attr iterationvars2 "$numNodes=98, $repetition=0"
attr measurement $numNodes=98
attr network csma802154net
attr numNodes 98
attr processid 136
attr repetition 0
attr replication #0
attr resultdir results
attr runnumber 48
attr seedset 48

vector 403  csma802154net.dataCentricNetworkMan  RREQPacketFrequency  ETV
vector 404  csma802154net.dataCentricNetworkMan  RERRPacketFrequency  ETV
vector 405  csma802154net.dataCentricNetworkMan  DiscoveryPacketFrequency  ETV
vector 406  csma802154net.dataCentricNetworkMan  RegisterPacketFrequency  ETV
vector 407  csma802154net.dataCentricNetworkMan  RReplyPacketFrequency  ETV
vector 408  csma802154net.dataCentricNetworkMan  AODVDataPacketFrequency  ETV
vector 415  csma802154net.dataCentricNetworkMan  pendingRegistrationVector  ETV
vector 414  csma802154net.dataCentricNetworkMan  pendingRREQVector  ETV
vector 409  csma802154net.dataCentricNetworkMan  AODVDataLineBreakVector  ETV
vector 412  csma802154net.dataCentricNetworkMan  PendingDataPacketsVector  ETV
vector 420  csma802154net.fixhost[4].udpApp  "End-to-end delay"  ETV
vector 400  csma802154net.dataCentricNetworkMan  dataPacketE2EDelay  ETV
vector 422  csma802154net.fixhost[6].udpApp  "End-to-end delay"  ETV
vector 425  csma802154net.fixhost[9].udpApp  "End-to-end delay"  ETV
vector 423  csma802154net.fixhost[7].udpApp  "End-to-end delay"  ETV
vector 427  csma802154net.fixhost[11].udpApp  "End-to-end delay"  ETV
vector 430  csma802154net.fixhost[14].udpApp  "End-to-end delay"  ETV
vector 435  csma802154net.fixhost[19].udpApp  "End-to-end delay"  ETV
vector 444  csma802154net.fixhost[28].udpApp  "End-to-end delay"  ETV
vector 418  csma802154net.fixhost[2].udpApp  "End-to-end delay"  ETV
vector 428  csma802154net.fixhost[12].udpApp  "End-to-end delay"  ETV
400	807132	70.03523600617	0.03523600617
400	807626	70.040316018247	0.040316018247
400	808114	70.045396035973	0.045396035973
400	810851	71.021396048541	0.021396048541
400	811368	71.024236077085	0.024236077085
400	812411	71.033404099489	0.033404099489
400	814664	72.018804030864	0.018804030864
400	815151	72.02260405021	0.02260405021
400	817924	73.086316069014	0.086316069014
400	818944	73.097404094998	0.097404094998
400	939916	670.00835600617	0.00835600617
400	940410	670.012476018247	0.012476018247
400	940898	670.016596035973	0.016596035973
400	943166	671.01787604854	0.01787604854
400	944205	671.027684077084	0.027684077084
400	945248	671.038132099488	0.038132099488
400	946990	672.014076030863	0.014076030863
400	947974	672.022676050209	0.022676050209
400	951848	673.026724069013	0.026724069013
400	952481	673.050364094997	0.050364094997
400	1073453	1270.00835600617	0.00835600617
400	1073947	1270.013436018247	0.013436018247
400	1074435	1270.018836035973	0.018836035973
400	1077234	1271.019724048541	0.019724048541
400	1077743	1271.021604077085	0.021604077085
400	1078786	1271.03084409949	0.03084409949
400	1081039	1272.015284030864	0.015284030864
400	1081526	1272.02036405021	0.02036405021
400	1084804	1273.022316069014	0.022316069014
400	1085313	1273.025156094998	0.025156094998
400	1206383	1870.00963600617	0.00963600617
400	1206877	1870.013436018247	0.013436018247
400	1207365	1870.017236035973	0.017236035973
400	1210100	1871.019796048539	0.019796048539
400	1211144	1871.027076099487	0.027076099487
400	1211652	1871.028964077082	0.028964077082
400	1213401	1872.011516030864	0.011516030864
400	1214394	1872.02196405021	0.02196405021
400	1217641	1873.023916069013	0.023916069013
400	1218150	1873.026756094997	0.026756094997
400	1339122	2470.00803600617	0.00803600617
400	1339616	2470.011836018247	0.011836018247
400	1340104	2470.015636035973	0.015636035973
400	1342842	2471.017876048541	0.017876048541
400	1343880	2471.022884077085	0.022884077085
400	1344401	2471.02700409949	0.02700409949
400	1346650	2472.01723605021	0.01723605021
400	1347154	2472.027052030864	0.027052030864
400	1350413	2473.024196094998	0.024196094998
400	1350932	2473.026404069014	0.026404069014
400	1471905	3070.00931600617	0.00931600617
400	1472399	3070.014716018247	0.014716018247
400	1472887	3070.018836035972	0.018836035972
400	1475154	3071.015636048541	0.015636048541
400	1476714	3071.02611609949	0.02611609949
400	1477229	3071.035292077084	0.035292077084
400	1478978	3072.012476030864	0.012476030864
400	1479971	3072.02324405021	0.02324405021
400	1483243	3073.027716094998	0.027716094998
400	1483761	3073.029924069014	0.029924069014
400	1604832	3670.00835600617	0.00835600617
400	1605326	3670.013116018247	0.013116018247
400	1605814	3670.016596035973	0.016596035973
400	1608082	3671.01691604854	0.01691604854
400	1609119	3671.024804077084	0.024804077084
400	1610409	3671.053492099489	0.053492099489
400	1612666	3672.012796030864	0.012796030864
400	1613659	3672.021004050209	0.021004050209
400	1616946	3673.025124069013	0.025124069013
400	1617455	3673.030524094997	0.030524094997
400	1738427	4270.00803600617	0.00803600617
400	1738921	4270.013436018247	0.013436018247
400	1739409	4270.016916035973	0.016916035973
400	1742306	4271.019084048539	0.019084048539
400	1742933	4271.023524077082	0.023524077082
400	1743977	4271.045884099486	0.045884099486
400	1746226	4272.017236050207	0.017236050207
400	1746729	4272.021292030862	0.021292030862
400	1749989	4273.025476094997	0.025476094997
400	1751267	4273.053852069013	0.053852069013
400	1872241	4870.01027600617	0.01027600617
400	1872735	4870.015356018247	0.015356018247
400	1873222	4870.019796035973	0.019796035973
400	1875490	4871.016276048541	0.016276048541
400	1876529	4871.026084077085	0.026084077085
400	1877571	4871.03557209949	0.03557209949
400	1879314	4872.014076030864	0.014076030864
400	1880307	4872.02324405021	0.02324405021
400	1883695	4873.027044069014	0.027044069014
400	1884328	4873.050684094998	0.050684094998
400	2005398	5470.009316006169	0.009316006169
400	2005892	5470.014396018246	0.014396018246
400	2006380	5470.017876035972	0.017876035972
400	2008859	5471.01499604854	0.01499604854
400	2009902	5471.043684077084	0.043684077084
400	2010945	5471.05477209949	0.05477209949
400	2012688	5472.014076030863	0.014076030863
400	2013681	5472.021324050209	0.021324050209
400	2016963	5473.027116069013	0.027116069013
400	2018234	5473.052924094997	0.052924094997
400	2139206	6070.00963600617	0.00963600617
400	2139700	6070.014716018247	0.014716018247
400	2140188	6070.019796035973	0.019796035973
400	2142455	6071.01659604854	0.01659604854
400	2143486	6071.021996077084	0.021996077084
400	2145784	6071.052924099489	0.052924099489
400	2148036	6072.015924030864	0.015924030864
400	2148769	6072.04180405021	0.04180405021
400	2152240	6073.020716069014	0.020716069014
400	2153264	6073.051324094998	0.051324094998
400	2274236	6670.008356006169	0.008356006169
400	2274730	6670.013116018246	0.013116018246
400	2275218	6670.017236035972	0.017236035972
400	2277489	6671.016916048541	0.016916048541
400	2278522	6671.022884077084	0.022884077084
400	2279565	6671.030132099489	0.030132099489
400	2281308	6672.012796030864	0.012796030864
400	2282301	6672.020684050209	0.020684050209
400	2285287	6673.025196069014	0.025196069014
400	2286310	6673.054204094998	0.054204094998
400	2407380	7270.00771600617	0.00771600617
400	2407874	7270.012156018247	0.012156018247
400	2408362	7270.015636035973	0.015636035973
400	2411367	7271.022636077085	0.022636077085
400	2412874	7271.051332048541	0.051332048541
400	2414426	7271.076532099489	0.076532099489
400	2416674	7272.013364030864	0.013364030864
400	2417161	7272.01659605021	0.01659605021
400	2420147	7273.021676069013	0.021676069013
400	2421171	7273.053564094997	0.053564094997
403	786	1.005	1
403	1182	1.01	58
403	2184	1.015	38
403	3889	1.02	88
403	6177	1.025	110
403	8869	1.03	84
403	11081	1.035	61
403	12847	1.04	70
403	14005	1.045	32
403	15832	1.05	96
403	16742	1.055	85
403	17876	1.06	75
403	18714	1.065	51
403	20210	1.07	108
403	21146	1.075	59
403	21586	1.08	24
403	22702	1.085	105
403	23045	1.09	27
403	23713	1.095	51
403	24242	1.1	21
403	25198	1.105	92
403	26056	1.11	69
403	26647	1.115	36
403	27851	1.12	82
403	27855	1.125	0
403	29220	1.132903577517	111
403	29221	1.137903577517	0
403	29731	1.14694522027	63
403	30426	1.15194522027	53
403	31581	1.15694522027	67
403	31798	1.16194522027	0
403	32830	1.168507168508	85
403	33297	1.173507168508	54
403	33298	1.178507168508	0
403	33663	1.198370511702	33
403	33664	1.203370511702	0
403	34054	1.22355735607	38
403	34055	1.22855735607	0
403	42689	43.505	1
403	43359	43.51	31
403	44959	43.515	0
403	45714	43.52	0
403	46846	43.525	0
403	47759	43.53	0
403	49144	43.53538184292	0
403	49997	43.54038184292	0
403	50708	43.54538184292	0
403	51455	43.55038184292	0
403	52287	43.55538184292	0
403	53517	43.56038184292	0
403	54667	43.56538184292	0
403	55892	43.57038184292	0
403	57615	43.580127881497	0
403	58575	43.585127881497	0
403	60073	43.592132616824	0
403	61101	43.597132616824	0
403	61803	43.602132616824	0
403	62619	43.607132616824	0
403	62980	43.612132616824	0
403	64839	43.623250284549	0
403	65744	43.628250284549	0
403	66659	43.633250284549	0
403	67784	43.640449484247	0
403	68707	43.645449484247	0
403	69434	43.650449484247	0
403	70329	43.655449484247	0
403	72712	43.670863905809	0
403	73280	43.675863905809	0
403	74086	43.680863905809	0
403	75568	43.687848152085	0
403	76400	43.692848152085	0
403	77176	43.697848152085	0
403	78138	43.702848152085	0
403	78813	43.707848152085	0
403	79659	43.714317861394	0
403	80244	43.719317861394	0
403	81389	43.724317861394	0
403	82176	43.729317861394	0
403	83467	43.742881264382	0
403	84070	43.747881264382	0
403	85238	43.752881264382	0
403	86143	43.757881264382	0
403	86935	43.762881264382	0
403	87641	43.767881264382	0
403	88109	43.772881264382	0
403	88731	43.777881264382	0
403	89679	43.782881264382	0
403	90243	43.787881264382	0
403	90805	43.792881264382	0
403	91270	43.797881264382	0
403	91378	43.802881264382	0
403	92914	43.813051232704	0
403	93376	43.818051232704	0
403	93865	43.833500249782	0
403	94315	43.838500249782	0
403	94316	43.843500249782	0
403	94803	43.894164277472	0
403	94804	43.899164277472	0
403	95008	44.505	1
403	95018	44.51	0
403	96340	44.517410532921	27
403	97727	44.522410532921	0
403	99176	44.527410532921	0
403	99994	44.532410532921	0
403	100481	44.537746683183	0
403	100997	44.542746683183	0
403	101739	44.547746683183	0
403	102448	44.552746683183	0
403	103234	44.557746683183	0
403	104822	44.565828521882	0
403	105189	44.570828521882	0
403	105900	44.575828521882	0
403	106869	44.583272207773	0
403	107528	44.588272207773	0
403	107892	44.593272207773	0
403	108489	44.598272207773	0
403	109105	44.603272207773	0
403	110274	44.609010869148	0
403	111199	44.614010869148	0
403	112832	44.628250884398	0
403	113540	44.633250884398	0
403	114762	44.638250884398	0
403	115916	44.643250884398	0
403	116655	44.648250884398	0
403	117541	44.653250884398	0
403	120494	44.676085786885	0
403	121089	44.681085786885	0
403	122454	44.689758774575	0
403	123277	44.694758774575	0
403	123972	44.699758774575	0
403	124792	44.704758774575	0
403	125492	44.709758774575	0
403	125986	44.714758774575	0
403	127427	44.721674890632	0
403	128134	44.726674890632	0
403	129501	44.738888870166	0
403	130237	44.743888870166	0
403	131119	44.748888870166	0
403	131703	44.753888870166	0
403	132543	44.758888870166	0
403	133325	44.763888870166	0
403	134153	44.768888870166	0
403	134644	44.773888870166	0
403	135215	44.778888870166	0
403	135575	44.783888870166	0
403	136028	44.788888870166	0
403	136980	44.797177013635	0
403	137548	44.802177013635	0
403	138466	44.821219318671	0
403	138843	44.826219318671	0
403	139312	44.831219318671	0
403	139534	44.836789289331	0
403	140481	44.841789289331	0
403	140965	44.846789289331	0
403	141460	44.855723347879	0
403	141471	44.860723347879	0
403	141923	44.86751289932	0
403	141924	44.87251289932	0
403	143055	45.505	1
403	143550	45.51	41
403	144962	45.515	0
403	146742	45.52	0
403	147612	45.525	0
403	148667	45.53	0
403	151272	45.543509599989	0
403	152428	45.548509599989	0
403	154335	45.55948066096	0
403	155324	45.56448066096	0
403	156531	45.56948066096	0
403	157934	45.57448066096	0
403	159218	45.57948066096	0
403	160299	45.58448066096	0
403	161888	45.595621473389	0
403	163152	45.600621473389	0
403	164137	45.605621473389	0
403	164875	45.610621473389	0
403	166141	45.615621473389	0
403	167184	45.620621473389	0
403	168025	45.625621473389	0
403	169197	45.632309438914	0
403	170289	45.637309438914	0
403	170994	45.642309438914	0
403	174379	45.656776907837	0
403	175151	45.661776907837	0
403	177959	45.675376624326	0
403	178765	45.680376624326	0
403	179812	45.685376624326	0
403	180543	45.690376624326	0
403	182948	45.703862575538	0
403	184400	45.708862575538	0
403	185651	45.713862575538	0
403	187536	45.727222705963	0
403	188172	45.732222705963	0
403	189145	45.737222705963	0
403	190192	45.742222705963	0
403	191270	45.747222705963	0
403	192295	45.752222705963	0
403	193698	45.760215439475	0
403	194049	45.765215439475	0
403	195384	45.770932739718	0
403	196428	45.775932739718	0
403	197559	45.784264725455	0
403	198264	45.789264725455	0
403	199072	45.794264725455	0
403	200003	45.799264725455	0
403	201073	45.804264725455	0
403	201541	45.809264725455	0
403	202957	45.819489681325	0
403	203559	45.824489681325	0
403	204373	45.829489681325	0
403	205393	45.834489681325	0
403	206159	45.839489681325	0
403	206854	45.844489681325	0
403	207554	45.849489681325	0
403	209240	45.856879799673	0
403	209850	45.861879799673	0
403	210088	45.866879799673	0
403	210563	45.871879799673	0
403	212663	45.886325505493	0
403	213401	45.891325505493	0
403	213874	45.896325505493	0
403	214706	45.903542556048	0
403	214934	45.908542556048	0
403	216013	45.913816444917	0
403	216723	45.918816444917	0
403	217469	45.923816444917	0
403	217924	45.928816444917	0
403	218423	45.942173532926	0
403	218885	45.947173532926	0
403	219581	45.953645107279	0
403	219585	45.958645107279	0
403	220764	45.983448920604	0
403	220765	45.988448920604	0
403	221907	46.002593012157	0
403	221908	46.007593012157	0
403	222392	46.019987322119	0
403	222393	46.024987322119	0
403	222400	46.505	1
403	222514	46.51	0
403	223947	46.515225280451	26
403	225170	46.520225280451	0
403	226279	46.525225280451	0
403	227334	46.530466833205	0
403	228054	46.535466833205	0
403	229217	46.540466833205	0
403	230613	46.545466833205	0
403	232149	46.550466833205	0
403	232963	46.555466833205	0
403	234175	46.560466833205	0
403	234785	46.565466833205	0
403	235718	46.572542893964	0
403	236333	46.577542893964	0
403	236902	46.582542893964	0
403	238226	46.588423035853	0
403	239042	46.593423035853	0
403	240660	46.601284828684	0
403	241455	46.606284828684	0
403	242867	46.61635271824	0
403	243820	46.62135271824	0
403	245516	46.63150473976	0
403	246448	46.63650473976	0
403	247775	46.643450686057	0
403	248618	46.648450686057	0
403	249227	46.655887098055	0
403	250352	46.660887098055	0
403	252048	46.669697031124	0
403	252909	46.674697031124	0
403	253636	46.679697031124	0
403	254444	46.684697031124	0
403	255171	46.689697031124	0
403	255916	46.694697031124	0
403	256298	46.699697031124	0
403	256789	46.704697031124	0
403	256902	46.709697031124	0
403	257514	46.714921882487	0
403	258398	46.719921882487	0
403	259095	46.724921882487	0
403	259470	46.729921882487	0
403	260310	46.734921882487	0
403	260931	46.739921882487	0
403	261357	46.744921882487	0
403	261832	46.75923805944	0
403	262083	46.76423805944	0
403	262990	46.76923805944	0
403	263599	46.788210848211	0
403	264521	46.793210848211	0
403	265212	46.798210848211	0
403	265335	46.803210848211	0
403	266303	46.853923983713	0
403	266304	46.858923983713	0
403	266776	46.880443994699	0
403	267374	46.885443994699	0
403	267759	46.890443994699	0
403	267972	47.505	1
403	268559	47.51	32
403	270088	47.515	0
403	271304	47.52	0
403	272950	47.525	0
403	273926	47.53	0
403	274896	47.535	0
403	276069	47.54	0
403	277076	47.545	0
403	278075	47.55	0
403	278957	47.555	0
403	280043	47.56	0
403	281021	47.565	0
403	281959	47.57	0
403	282182	47.575	0
403	283405	47.580669035619	0
403	284377	47.585669035619	0
403	285083	47.590669035619	0
403	287338	47.602688563753	0
403	288332	47.607688563753	0
403	288960	47.612688563753	0
403	289986	47.617688563753	0
403	290901	47.622688563753	0
403	294307	47.644035012967	0
403	295009	47.649035012967	0
403	296908	47.659098766175	0
403	298543	47.664098766175	0
403	299017	47.669098766175	0
403	299818	47.674098766175	0
403	300824	47.679098766175	0
403	301760	47.684098766175	0
403	303252	47.69219827108	0
403	304105	47.69719827108	0
403	305277	47.70219827108	0
403	305990	47.70719827108	0
403	306968	47.71219827108	0
403	307922	47.71719827108	0
403	308711	47.72219827108	0
403	309666	47.72719827108	0
403	310491	47.73219827108	0
403	312821	47.747362795041	0
403	313410	47.752362795041	0
403	314741	47.758494147997	0
403	315463	47.763494147997	0
403	316188	47.768494147997	0
403	317754	47.780656718134	0
403	318371	47.785656718134	0
403	319039	47.790656718134	0
403	320883	47.806479738772	0
403	320892	47.811479738772	0
403	321497	47.819170581803	0
403	322657	47.824170581803	0
403	323137	47.829170581803	0
403	323729	47.834170581803	0
403	323730	47.839170581803	0
403	324195	47.850744880671	0
403	324697	47.855744880671	0
403	325188	47.860744880671	0
403	325189	47.865744880671	0
403	325671	47.874866171167	0
403	325672	47.879866171167	0
403	326174	47.892426183708	0
403	326175	47.897426183708	0
403	327652	47.991354227826	0
403	327653	47.996354227826	0
403	327863	48.505	1
403	328347	48.51	28
403	329740	48.515	0
403	331581	48.52	0
403	332266	48.525	0
403	333392	48.53	0
403	334560	48.535	0
403	335615	48.54	0
403	337125	48.545	0
403	338397	48.55	0
403	339387	48.555	0
403	340610	48.56	0
403	341401	48.565	0
403	342730	48.571335895943	0
403	343420	48.576335895943	0
403	344996	48.584588348526	0
403	345693	48.589588348526	0
403	348033	48.59943966305	0
403	348994	48.60443966305	0
403	349948	48.60943966305	0
403	350545	48.61443966305	0
403	351499	48.621580365281	0
403	352115	48.626580365281	0
403	353811	48.638152899065	0
403	354153	48.643152899065	0
403	355132	48.648152899065	0
403	356322	48.655129750384	0
403	357499	48.660129750384	0
403	358502	48.666329952912	0
403	359432	48.671329952912	0
403	360040	48.676329952912	0
403	360758	48.681329952912	0
403	361768	48.686329952912	0
403	362749	48.695321780772	0
403	363232	48.700321780772	0
403	363710	48.705321780772	0
403	364422	48.710321780772	0
403	364770	48.715323897144	0
403	365573	48.720323897144	0
403	367946	48.740249754285	0
403	368510	48.745249754285	0
403	369802	48.751814635093	0
403	370655	48.756814635093	0
403	371114	48.761814635093	0
403	372808	48.773364292468	0
403	373540	48.778364292468	0
403	374917	48.787928270852	0
403	375478	48.792928270852	0
403	376333	48.80733430759	0
403	376447	48.81233430759	0
403	377269	48.817891038611	0
403	377779	48.822891038611	0
403	378282	48.827891038611	0
403	378283	48.832891038611	0
403	378857	48.865274309495	0
403	379244	48.870274309495	0
403	379245	48.875274309495	0
403	379489	49.505	1
403	379895	49.51	14
403	380818	49.515	0
403	382381	49.52	0
403	383077	49.525	0
403	384015	49.53	0
403	384925	49.535	0
403	385880	49.54	0
403	386997	49.545	0
403	387845	49.551539370473	0
403	388762	49.556539370473	0
403	389474	49.561539370473	0
403	389726	49.566539370473	0
403	391232	49.579147262419	0
403	391685	49.584147262419	0
403	392747	49.589147262419	0
403	393422	49.594147262419	0
403	394024	49.599147262419	0
403	394865	49.604147262419	0
403	394978	49.609147262419	0
403	395319	49.615591268554	0
403	395325	49.620591268554	0
403	397345	49.64493602536	0
403	397832	49.64993602536	0
403	399214	49.658814118115	0
403	399790	49.663814118115	0
403	399791	49.668814118115	0
403	400291	49.67776005442	0
403	401076	49.68276005442	0
403	402136	49.694089327102	0
403	402390	49.699089327102	0
403	403186	49.710429124756	0
403	403333	49.715429124756	0
403	404473	49.736456846721	0
403	404478	49.741456846721	0
403	407049	49.787571131282	0
403	407291	49.792571131282	0
403	407731	49.797571131282	0
403	409664	49.812437139599	0
403	410142	49.817437139599	0
403	410376	50.505	1
403	410889	50.51	44
403	412546	50.515	0
403	414301	50.52	0
403	415401	50.525	0
403	419438	50.54072594134	0
403	420542	50.54572594134	0
403	421484	50.55072594134	7
403	422576	50.55572594134	0
403	423918	50.561101994775	0
403	425133	50.566101994775	0
403	426679	50.571101994775	0
403	427570	50.576101994775	0
403	428993	50.581101994775	0
403	430058	50.586101994775	0
403	431165	50.591101994775	0
403	432346	50.596101994775	0
403	433451	50.601101994775	0
403	434771	50.606101994775	0
403	436030	50.611101994775	0
403	437816	50.621770158543	0
403	438778	50.626770158543	0
403	440271	50.631770158543	0
403	442539	50.64292150578	0
403	443611	50.64792150578	0
403	448295	50.669788258804	0
403	449511	50.674788258804	0
403	453645	50.693711749406	0
403	454831	50.698711749406	0
403	458434	50.71360489872	0
403	459959	50.71860489872	0
403	460900	50.72360489872	0
403	463701	50.737304689575	0
403	464108	50.742304689575	0
403	465915	50.750551648016	0
403	466894	50.755551648016	0
403	468070	50.762812559625	0
403	469030	50.767812559625	0
403	470849	50.778304674771	0
403	471968	50.783304674771	0
403	472808	50.788304674771	0
403	474096	50.793304674771	0
403	474969	50.798304674771	0
403	476154	50.803304674771	0
403	476743	50.808304674771	0
403	478507	50.817719504885	0
403	479123	50.822719504885	0
403	480232	50.827719504885	0
403	480935	50.832719504885	0
403	484138	50.853107032159	0
403	485310	50.858107032159	0
403	485929	50.863107032159	0
403	486736	50.868107032159	0
403	487578	50.873107032159	0
403	488710	50.878107032159	0
403	489437	50.883107032159	0
403	489918	50.888107032159	0
403	490443	50.893107032159	0
403	491456	50.898107032159	0
403	492373	50.903107032159	0
403	494051	50.916604922656	0
403	494401	50.921604922656	0
403	495279	50.926604922656	0
403	495972	50.931604922656	0
403	497307	50.942370334863	0
403	497420	50.947370334863	0
403	499671	50.960041028514	0
403	499676	50.965041028514	0
403	500498	50.976868389744	0
403	501312	50.981868389744	0
403	502068	50.990626690017	0
403	502570	50.995626690017	0
403	503290	51.004123107043	0
403	504259	51.009123107043	0
403	505180	51.014123107043	0
403	505783	51.03828876086	0
403	506684	51.04328876086	0
403	506792	51.04828876086	0
403	507164	51.054686399339	0
403	507165	51.059686399339	0
403	507222	51.505	1
403	507901	51.51	28
403	509182	51.515	0
403	510322	51.52	9
403	511569	51.525	0
403	512664	51.53	0
403	513490	51.535	0
403	514908	51.54	0
403	515782	51.545	0
403	516600	51.55	0
403	517587	51.555	0
403	518578	51.56	0
403	519773	51.565	0
403	521926	51.575824258986	0
403	523106	51.580824258986	0
403	523834	51.585824258986	0
403	524796	51.592228797996	0
403	525804	51.597228797996	0
403	526770	51.602228797996	0
403	527628	51.607228797996	0
403	529469	51.619556732917	0
403	530311	51.624556732917	0
403	531403	51.629556732917	0
403	532030	51.634556732917	0
403	533000	51.639556732917	0
403	533496	51.644556732917	0
403	534458	51.65211494565	0
403	535505	51.65711494565	0
403	536199	51.66211494565	0
403	537195	51.667325559297	0
403	537811	51.672325559297	0
403	538422	51.677325559297	0
403	539232	51.682325559297	0
403	540637	51.687721434695	0
403	541607	51.692721434695	0
403	542328	51.697721434695	0
403	543067	51.702721434695	0
403	543513	51.707721434695	0
403	544864	51.7182071253	0
403	545463	51.7232071253	0
403	547508	51.740607175847	0
403	547911	51.745607175847	0
403	549857	51.761787507636	0
403	550902	51.766787507636	0
403	551026	51.771787507636	0
403	551994	51.778747520489	0
403	552514	51.783747520489	0
403	553105	51.788747520489	0
403	553596	51.793747520489	0
403	554445	51.799018035167	0
403	554446	51.804018035167	0
403	555427	51.827926080056	0
403	555428	51.832926080056	0
403	555667	52.505	1
403	556175	52.51	32
403	557989	52.515	0
403	560008	52.52	0
403	560956	52.525	0
403	561928	52.53	0
403	563018	52.535	0
403	564170	52.54	0
403	566027	52.545	0
403	567015	52.55	0
403	568170	52.555	0
403	568764	52.56	0
403	569495	52.565	0
403	570759	52.57	0
403	571634	52.575	0
403	572725	52.58	0
403	573573	52.585	0
403	574607	52.59066109809	0
403	575479	52.59566109809	0
403	577835	52.60971018384	0
403	578888	52.61471018384	0
403	579643	52.61971018384	0
403	580752	52.62471018384	0
403	581958	52.632379371048	0
403	582890	52.637379371048	0
403	584011	52.643649095455	0
403	585221	52.648649095455	0
403	585729	52.653649095455	0
403	586792	52.658649095455	0
403	587570	52.663649095455	0
403	588170	52.668649095455	0
403	589666	52.677464614356	0
403	589926	52.682464614356	0
403	591262	52.687838209063	0
403	592443	52.692838209063	0
403	593214	52.697838209063	0
403	594467	52.705540613033	0
403	595102	52.710540613033	0
403	595944	52.715540613033	0
403	596988	52.720540613033	0
403	597994	52.725540613033	0
403	598255	52.730540613033	0
403	600109	52.741628571915	0
403	601120	52.746628571915	0
403	602083	52.751628571915	0
403	602963	52.756628571915	0
403	603844	52.761628571915	0
403	604583	52.766628571915	0
403	606288	52.776473076997	0
403	606396	52.781473076997	0
403	606908	52.787101110628	0
403	607437	52.792101110628	0
403	607823	52.797101110628	0
403	608329	52.802101110628	0
403	608846	52.809296952099	0
403	609338	52.814296952099	0
403	609978	52.819296952099	0
403	611338	52.824296952099	0
403	611958	52.829296952099	0
403	612368	52.834296952099	0
403	612866	52.839296952099	0
403	612867	52.844296952099	0
403	613382	52.860714421247	0
403	613383	52.865714421247	0
403	613871	52.896958442956	0
403	613872	52.901958442956	0
403	614373	52.957622465667	0
403	614374	52.962622465667	0
403	614610	53.505	1
403	614620	53.51	0
403	617623	53.517151037312	56
403	619784	53.522151037312	0
403	621837	53.527151037312	0
403	623295	53.532151037312	0
403	624481	53.538784111353	0
403	626216	53.543784111353	0
403	627916	53.548784111353	0
403	628865	53.553784111353	0
403	633322	53.569669726063	0
403	634669	53.574669726063	0
403	635778	53.579669726063	0
403	637708	53.584669726063	0
403	638968	53.589669726063	0
403	640928	53.598686447564	0
403	642297	53.603686447564	0
403	643551	53.608686447564	0
403	645316	53.613686447564	0
403	647222	53.620540655006	0
403	648682	53.625540655006	0
403	649568	53.630540655006	0
403	653032	53.64181017031	0
403	653864	53.64681017031	0
403	655842	53.654473275798	0
403	657014	53.659473275798	0
403	658640	53.664473275798	0
403	662730	53.682183480809	0
403	663535	53.687183480809	0
403	667305	53.698106744515	0
403	668554	53.703106744515	0
403	669651	53.708106744515	0
403	670769	53.713106744515	0
403	672222	53.718106744515	0
403	673717	53.723106744515	0
403	674795	53.728106744515	0
403	676160	53.733106744515	0
403	677685	53.738106744515	0
403	679023	53.743106744515	0
403	680146	53.748106744515	0
403	681374	53.753106744515	0
403	683108	53.761052679047	0
403	684631	53.766052679047	0
403	685845	53.771052679047	0
403	687310	53.776052679047	0
403	688635	53.781052679047	0
403	691417	53.793613981705	0
403	692350	53.798613981705	0
403	694656	53.808665812903	0
403	695725	53.813665812903	0
403	697149	53.819621084856	0
403	698142	53.824621084856	0
403	699034	53.829621084856	0
403	700580	53.836363396094	0
403	701483	53.841363396094	0
403	702382	53.846363396094	0
403	703737	53.851423808585	0
403	704852	53.856423808585	0
403	707477	53.870269310708	0
403	708519	53.875269310708	0
403	709782	53.880269310708	0
403	710450	53.885269310708	0
403	711317	53.890269310708	0
403	712322	53.895269310708	0
403	713346	53.900269310708	0
403	714329	53.905269310708	0
403	715465	53.912801265646	0
403	716355	53.917801265646	0
403	716985	53.922801265646	0
403	717217	53.927801265646	0
403	718692	53.932903835414	0
403	719316	53.937903835414	0
403	720316	53.945798163785	0
403	721270	53.950798163785	0
403	722221	53.955798163785	0
403	723274	53.960798163785	0
403	724361	53.965798163785	0
403	725064	53.970798163785	0
403	726206	53.976439293209	0
403	726836	53.981439293209	0
403	727865	53.986439293209	0
403	728220	53.991439293209	0
403	729009	53.996439293209	0
403	729723	54.001439293209	0
403	729835	54.006439293209	0
403	730463	54.012350011278	0
403	730839	54.017350011278	0
403	731243	54.022350011278	0
403	731740	54.027350011278	0
403	731741	54.032350011278	0
403	732340	54.064395987325	0
403	732981	54.069395987325	0
403	732982	54.074395987325	0
403	733492	54.09634797925	0
403	733493	54.10134797925	0
403	733528	54.505	1
403	733535	54.51	0
403	735434	54.519485869199	33
403	737521	54.524485869199	0
403	738482	54.529485869199	0
403	739374	54.534485869199	0
403	740477	54.539485869199	0
403	741212	54.544485869199	0
403	742531	54.550374786696	0
403	743570	54.555374786696	0
403	744837	54.560374786696	0
403	745823	54.565374786696	0
403	746947	54.571595495907	0
403	748003	54.576595495907	0
403	748751	54.581595495907	0
403	749749	54.586595495907	0
403	751240	54.592607171364	0
403	752462	54.597607171364	0
403	753387	54.602607171364	0
403	754242	54.607607171364	0
403	756599	54.624041225921	0
403	757578	54.629041225921	0
403	758599	54.634041225921	0
403	761141	54.652568115052	0
403	761884	54.657568115052	0
403	762679	54.662568115052	0
403	763880	54.667697216777	0
403	764746	54.672697216777	0
403	765573	54.677697216777	0
403	768382	54.692883471643	0
403	768893	54.697883471643	0
403	769505	54.702883471643	0
403	770934	54.713055374694	0
403	772376	54.718055374694	0
403	773018	54.723055374694	0
403	774436	54.728887825971	0
403	775441	54.733887825971	0
403	776433	54.740466494304	0
403	777217	54.745466494304	0
403	777725	54.750466494304	0
403	778833	54.755466494304	0
403	779729	54.760466494304	0
403	780415	54.765466494304	0
403	781176	54.770466494304	0
403	782549	54.777553244718	0
403	783393	54.782553244718	0
403	786266	54.797045927927	0
403	786887	54.802045927927	0
403	787901	54.810266996029	0
403	788400	54.815266996029	0
403	789001	54.820266996029	0
403	790603	54.833311213051	0
403	790607	54.838311213051	0
403	792223	54.852371493203	0
403	793158	54.857371493203	0
403	794481	54.864721227647	0
403	794979	54.869721227647	0
403	795978	54.874721227647	0
403	796572	54.879721227647	0
403	796953	54.884721227647	0
403	797971	54.88997905988	0