file 189470 1351853645                                          
version 2
run AODVScenario_1g-0-20121102-10:51:54-3472
attr configname AODVScenario_1g
attr datetime 20121102-10:51:54
attr experiment AODVScenario_1g
attr inifile AODV.ini
attr iterationvars ""
attr iterationvars2 $repetition=0
attr measurement ""
attr network csma802154net
attr processid 3472
attr repetition 0
attr replication #0
attr resultdir results
attr runnumber 0
attr seedset 0

vector 511  csma802154net.dataCentricNetworkMan  RREQPacketFrequency  ETV
vector 512  csma802154net.dataCentricNetworkMan  RERRPacketFrequency  ETV
vector 513  csma802154net.dataCentricNetworkMan  DiscoveryPacketFrequency  ETV
vector 514  csma802154net.dataCentricNetworkMan  RegisterPacketFrequency  ETV
vector 515  csma802154net.dataCentricNetworkMan  RReplyPacketFrequency  ETV
vector 516  csma802154net.dataCentricNetworkMan  AODVDataPacketFrequency  ETV
vector 521  csma802154net.dataCentricNetworkMan  pendingRegistrationVector  ETV
vector 520  csma802154net.dataCentricNetworkMan  pendingRREQVector  ETV
vector 517  csma802154net.dataCentricNetworkMan  AODVDataLineBreakVector  ETV
vector 518  csma802154net.dataCentricNetworkMan  PendingDataPacketsVector  ETV
vector 528  csma802154net.fixhost[6].udpApp  "End-to-end delay"  ETV
vector 508  csma802154net.dataCentricNetworkMan  dataPacketE2EDelay  ETV
vector 541  csma802154net.fixhost[19].udpApp  "End-to-end delay"  ETV
vector 542  csma802154net.fixhost[20].udpApp  "End-to-end delay"  ETV
vector 531  csma802154net.fixhost[9].udpApp  "End-to-end delay"  ETV
vector 539  csma802154net.fixhost[17].udpApp  "End-to-end delay"  ETV
vector 534  csma802154net.fixhost[12].udpApp  "End-to-end delay"  ETV
vector 532  csma802154net.fixhost[10].udpApp  "End-to-end delay"  ETV
vector 538  csma802154net.fixhost[16].udpApp  "End-to-end delay"  ETV
vector 533  csma802154net.fixhost[11].udpApp  "End-to-end delay"  ETV
vector 525  csma802154net.fixhost[3].udpApp  "End-to-end delay"  ETV
vector 524  csma802154net.fixhost[2].udpApp  "End-to-end delay"  ETV
vector 523  csma802154net.fixhost[1].udpApp  "End-to-end delay"  ETV
vector 510  csma802154net.dataCentricNetworkMan  modulesDownVector  ETV
508	2179 7096 650402 2906621 70.011836043988 7273.087692107448 156 0.010876043991 0.385625454053 7.554622627035 0.88402256242657
510	9275 800 1161405 2805920 1800 7200 40 1 8 210 1204
511	10075 26862 1005 2906931 1.005 7273.089732091141 925 0 240 39709 4262319
512	36937 26251 1005 2906931 1.005 7273.089732091141 925 0 0 0 0
513	63188 26251 1005 2906931 1.005 7273.089732091141 925 0 0 0 0
514	89439 26251 1005 2906931 1.005 7273.089732091141 925 0 1 12 12
515	115690 26251 1005 2906931 1.005 7273.089732091141 925 0 2 66 108
516	141941 26251 1005 2906931 1.005 7273.089732091141 925 0 4 559 1143
517	168192 96 524816 2837931 13.362686033945 7272.168785999999 3 1 3 6 14
518	168288 12818 648463 2906621 70 7273.087692107448 416 0 3 520 1040
520	181106 721 57965 2875531 3.008366021223 7272.272177321944 24 0 1 12 12
521	181827 547 56702 579591 3 14.076476042045 24 0 1 12 12
523	182374 593 671687 2904906 73.101636069329 7273.075356087475 13 0.023556069329 0.335325616746 0.857078557568 0.14145283177646
524	182967 593 671030 2906621 73.057684096854 7273.087692107448 13 0.032476107451 0.193612069066 0.800485294889 0.070921581755818
525	183560 593 669704 2903285 73.040364104097 7273.045556114692 13 0.039084114694 0.199828076309 0.805613384628 0.072917870149904
528	184153 583 650402 2825761 70.011836043988 7270.010876043991 13 0.010876043991 0.03153204399 0.248044571875 0.0053846473111156
531	184736 593 654663 2832390 71.017236046516 7271.027756051193 13 0.017236046516 0.051652046516 0.371764632769 0.011624933525567
532	185329 593 661264 2891830 72.028996075233 7272.346561399482 13 0.024836077517 0.346561399482 0.880602313693 0.15643177505939
533	185922 593 663721 2896354 72.060204129805 7272.385625454053 13 0.029276103189 0.385625454053 0.954810730354 0.1782147032522
534	186515 591 656541 2835382 71.047844079244 7271.07870008392 13 0.025836079243 0.07870008392 0.516773058232 0.023822418755758
538	187106 591 663094 2895611 72.054804119647 7272.380865443895 13 0.037452121929 0.380865443895 1.046650891073 0.18507981129961
539	187697 587 655889 2833271 71.04560409724 7271.051004101917 13 0.020396097238 0.056692101917 0.455229292179 0.018238681501576
541	188284 593 651034 2827520 70.035444059791 7270.060972059795 13 0.011516059794 0.060972059795 0.275676777327 0.0084175091437444
542	188877 593 651630 2828103 70.038924086338 7270.066372086343 13 0.017236086343 0.066372086343 0.341893122448 0.011515798895437
