file 259982 1349966601                                          
version 2
run AODVScenario_1f-0-20121011-15:33:24-3620
attr configname AODVScenario_1f
attr datetime 20121011-15:33:24
attr experiment AODVScenario_1f
attr inifile AODV.ini
attr iterationvars ""
attr iterationvars2 $repetition=0
attr measurement ""
attr network csma802154net
attr processid 3620
attr repetition 0
attr replication #0
attr resultdir results
attr runnumber 0
attr seedset 0

vector 386  csma802154net.dataCentricNetworkMan  RREQPacketFrequency  ETV
vector 387  csma802154net.dataCentricNetworkMan  DiscoveryPacketFrequency  ETV
vector 388  csma802154net.dataCentricNetworkMan  RegisterPacketFrequency  ETV
vector 389  csma802154net.dataCentricNetworkMan  RReplyPacketFrequency  ETV
vector 390  csma802154net.dataCentricNetworkMan  AODVDataPacketFrequency  ETV
vector 411  csma802154net.fixhost[19].udpApp  "End-to-end delay"  ETV
vector 383  csma802154net.dataCentricNetworkMan  dataPacketE2EDelay  ETV
vector 412  csma802154net.fixhost[20].udpApp  "End-to-end delay"  ETV
vector 401  csma802154net.fixhost[9].udpApp  "End-to-end delay"  ETV
vector 404  csma802154net.fixhost[12].udpApp  "End-to-end delay"  ETV
vector 408  csma802154net.fixhost[16].udpApp  "End-to-end delay"  ETV
vector 393  csma802154net.fixhost[1].udpApp  "End-to-end delay"  ETV
vector 402  csma802154net.fixhost[10].udpApp  "End-to-end delay"  ETV
383	1366 308 4002216 4961609 70.037012032825 80.903124568144 7 0.037012032825 8.903124568144 9.622331443787 79.397925892201
386	1674 51948 10993 5026749 40.005 81.18004582906 1704 0 348 29587 3738887
387	53622 51499 10993 5026749 40.005 81.18004582906 1704 0 0 0 0
388	105121 51499 10993 5026749 40.005 81.18004582906 1704 0 1 12 12
389	156620 51525 10993 5026749 40.005 81.18004582906 1704 0 213 3210 293062
390	208145 51529 10993 5026749 40.005 81.18004582906 1704 0 173 2068 245362
393	259674 44 4251579 4251579 73.104308063749 73.104308063749 1 0.104308063749 0.104308063749 0.104308063749 0.010880172163065
401	259718 44 4084145 4084145 71.062468043737 71.062468043737 1 0.062468043737 0.062468043737 0.062468043737 0.0039022564883277
402	259762 44 4961609 4961609 80.903124568144 80.903124568144 1 8.903124568144 8.903124568144 8.903124568144 79.265627075889
404	259806 44 4129740 4129740 71.199251786485 71.199251786485 1 0.199251786485 0.199251786485 0.199251786485 0.039701274417464
408	259850 44 4208862 4208862 72.273114889475 72.273114889475 1 0.273114889475 0.273114889475 0.273114889475 0.074591742852941
411	259894 44 4002216 4002216 70.037012032825 70.037012032825 1 0.037012032825 0.037012032825 0.037012032825 0.0013698905738389
412	259938 44 4003745 4003745 70.043052059372 70.043052059372 1 0.043052059372 0.043052059372 0.043052059372 0.0018534798161702
