version 2
run AODVScenario_1f-11-20121121-11:39:21-3076
attr configname AODVScenario_1f
attr datetime 20121121-11:39:21
attr experiment AODVScenario_1f
attr inifile AODV.ini
attr iterationvars $numNodes=61
attr iterationvars2 "$numNodes=61, $repetition=0"
attr measurement $numNodes=61
attr network csma802154net
attr numNodes 61
attr processid 3076
attr repetition 0
attr replication #0
attr resultdir results
attr runnumber 11
attr seedset 11

vector 255  csma802154net.dataCentricNetworkMan  RREQPacketFrequency  ETV
vector 256  csma802154net.dataCentricNetworkMan  RERRPacketFrequency  ETV
vector 257  csma802154net.dataCentricNetworkMan  DiscoveryPacketFrequency  ETV
vector 258  csma802154net.dataCentricNetworkMan  RegisterPacketFrequency  ETV
vector 259  csma802154net.dataCentricNetworkMan  RReplyPacketFrequency  ETV
vector 260  csma802154net.dataCentricNetworkMan  AODVDataPacketFrequency  ETV
vector 267  csma802154net.dataCentricNetworkMan  pendingRegistrationVector  ETV
vector 266  csma802154net.dataCentricNetworkMan  pendingRREQVector  ETV
vector 264  csma802154net.dataCentricNetworkMan  PendingDataPacketsVector  ETV
vector 273  csma802154net.fixhost[5].udpApp  "End-to-end delay"  ETV
vector 252  csma802154net.dataCentricNetworkMan  dataPacketE2EDelay  ETV
vector 278  csma802154net.fixhost[10].udpApp  "End-to-end delay"  ETV
vector 297  csma802154net.fixhost[29].udpApp  "End-to-end delay"  ETV
vector 271  csma802154net.fixhost[3].udpApp  "End-to-end delay"  ETV
vector 276  csma802154net.fixhost[8].udpApp  "End-to-end delay"  ETV
vector 277  csma802154net.fixhost[9].udpApp  "End-to-end delay"  ETV
vector 275  csma802154net.fixhost[7].udpApp  "End-to-end delay"  ETV
vector 279  csma802154net.fixhost[11].udpApp  "End-to-end delay"  ETV
vector 283  csma802154net.fixhost[15].udpApp  "End-to-end delay"  ETV
vector 274  csma802154net.fixhost[6].udpApp  "End-to-end delay"  ETV
vector 281  csma802154net.fixhost[13].udpApp  "End-to-end delay"  ETV
vector 282  csma802154net.fixhost[14].udpApp  "End-to-end delay"  ETV
252	276851	70.008676022691	0.008676022691
252	277148	70.013756039761	0.013756039761
252	277442	70.019156064388	0.019156064388
252	278865	71.020436063657	0.020436063657
252	279502	71.030884092973	0.030884092973
252	280118	71.039484127944	0.039484127944
252	281813	72.023276057842	0.023276057842
252	282884	72.034644095136	0.034644095136
252	283498	72.06209210848	0.06209210848
252	285702	73.027396095323	0.027396095323
252	286736	73.055124127084	0.055124127084
252	287948	73.085052170947	0.085052170947
252	363248	670.007716022691	0.007716022691
252	363545	670.012476039761	0.012476039761
252	363839	670.015956064388	0.015956064388
252	365262	671.016596063657	0.016596063657
252	365900	671.028004092973	0.028004092973
252	366520	671.040372127944	0.040372127944
252	368218	672.022956057842	0.022956057842
252	369433	672.034964095135	0.034964095135
252	369745	672.038732108479	0.038732108479
252	372582	673.032796128427	0.032796128427
252	373232	673.045164159602	0.045164159602
252	374214	673.064892170947	0.064892170947
252	449514	1270.008676022691	0.008676022691
252	449811	1270.013116039761	0.013116039761
252	450105	1270.017556064388	0.017556064388
252	451528	1271.017876063657	0.017876063657
252	452295	1271.026724092973	0.026724092973
252	452919	1271.056692127944	0.056692127944
252	454614	1272.022956057842	0.022956057842
252	455843	1272.035284095136	0.035284095136
252	456151	1272.03752410848	0.03752410848
252	458914	1273.031516128427	0.031516128427
252	459640	1273.041644159602	0.041644159602
252	460938	1273.065212170947	0.065212170947
252	536616	1870.007396022691	0.007396022691
252	536913	1870.012156039761	0.012156039761
252	537207	1870.017236064388	0.017236064388
252	539247	1871.02455609676	0.02455609676
252	539566	1871.026756127943	0.026756127943
252	539885	1871.028996124368	0.028996124368
252	541576	1872.021036057841	0.021036057841
252	542812	1872.037772095135	0.037772095135
252	543124	1872.042892108479	0.042892108479
252	545199	1873.025796095322	0.025796095322
252	546458	1873.038164127082	0.038164127082
252	547435	1873.049924170945	0.049924170945
252	622735	2470.009956022691	0.009956022691
252	623032	2470.014396039761	0.014396039761
252	623326	2470.018516064388	0.018516064388
252	625190	2471.022956096759	0.022956096759
252	625518	2471.030916124367	0.030916124367
252	626139	2471.052284127943	0.052284127943
252	627833	2472.022316057842	0.022316057842
252	628903	2472.033116095136	0.033116095136
252	629518	2472.06241210848	0.06241210848
252	632932	2473.040716170947	0.040716170947
252	633657	2473.052844159602	0.052844159602
252	634771	2473.091140128427	0.091140128427
252	710072	3070.006756022691	0.006756022691
252	710369	3070.012156039761	0.012156039761
252	710663	3070.016596064388	0.016596064388
252	712700	3071.02423609676	0.02423609676
252	713019	3071.027076127943	0.027076127943
252	713342	3071.031556124368	0.031556124368
252	715033	3072.021676057842	0.021676057842
252	716105	3072.036884095136	0.036884095136
252	716720	3072.06433210848	0.06433210848
252	720216	3073.040716170947	0.040716170947
252	720864	3073.052524159602	0.052524159602
252	721188	3073.064972128426	0.064972128426
252	796550	3670.007396022691	0.007396022691
252	796847	3670.012156039761	0.012156039761
252	797141	3670.017556064388	0.017556064388
252	799007	3671.021356096759	0.021356096759
252	799334	3671.028676124367	0.028676124367
252	799954	3671.050044127941	0.050044127941
252	801956	3672.02512405784	0.02512405784
252	802650	3672.031516095133	0.031516095133
252	803338	3672.060492108477	0.060492108477
252	805726	3673.027396095323	0.027396095323
252	806745	3673.036812127084	0.036812127084
252	808267	3673.092908170947	0.092908170947
252	883567	4270.006756022691	0.006756022691
252	883864	4270.010876039761	0.010876039761
252	884158	4270.016276064388	0.016276064388
252	886197	4271.024516127943	0.024516127943
252	886521	4271.03177209676	0.03177209676
252	886845	4271.039092124367	0.039092124367
252	888838	4272.02231605784	0.02231605784
252	889462	4272.027996095135	0.027996095135
252	890074	4272.034644108477	0.034644108477
252	892216	4273.028036095321	0.028036095321
252	893895	4273.070972170944	0.070972170944
252	894543	4273.083316127081	0.083316127081
252	969844	4870.008996022691	0.008996022691
252	970141	4870.012476039761	0.012476039761
252	970435	4870.016276064388	0.016276064388
252	971858	4871.027796063656	0.027796063656
252	972492	4871.037924092973	0.037924092973
252	973111	4871.046204127943	0.046204127943
252	975559	4872.032156095136	0.032156095136
252	976165	4872.048484057842	0.048484057842
252	976776	4872.05576410848	0.05576410848
252	979604	4873.034396128425	0.034396128425
252	980598	4873.064644170945	0.064644170945
252	981562	4873.081820159599	0.081820159599
252	1056924	5470.008036022691	0.008036022691
252	1057221	5470.013116039761	0.013116039761
252	1057515	5470.016596064388	0.016596064388
252	1059552	5471.022956096761	0.022956096761
252	1059874	5471.026116127944	0.026116127944
252	1060197	5471.029884124369	0.029884124369
252	1061888	5472.022316057842	0.022316057842
252	1063124	5472.038124126768	0.038124126768
252	1063436	5472.04157213416	0.04157213416
252	1066265	5473.035996128426	0.035996128426
252	1067904	5473.066492170946	0.066492170946
252	1068225	5473.071580159601	0.071580159601
252	1143526	6070.008356022691	0.008356022691
252	1143823	6070.013756039761	0.013756039761
252	1144117	6070.018836064388	0.018836064388
252	1145540	6071.017556063657	0.017556063657
252	1146178	6071.025444092973	0.025444092973
252	1146797	6071.035572127944	0.035572127944
252	1148492	6072.020076057841	0.020076057841
252	1149725	6072.042924134159	0.042924134159
252	1150037	6072.047012126767	0.047012126767
252	1152244	6073.024516095322	0.024516095322
252	1153654	6073.057292127083	0.057292127083
252	1154640	6073.094260170945	0.094260170945
252	1229940	6670.00803602269	0.00803602269
252	1230237	6670.01343603976	0.01343603976
252	1230531	6670.018196064387	0.018196064387
252	1231954	6671.019156063656	0.019156063656
252	1232592	6671.029924092973	0.029924092973
252	1233211	6671.036852127943	0.036852127943
252	1234906	6672.022956057842	0.022956057842
252	1235841	6672.037524095136	0.037524095136
252	1236449	6672.04417210848	0.04417210848
252	1238665	6673.026756095323	0.026756095323
252	1240596	6673.069372170947	0.069372170947
252	1241391	6673.095796127083	0.095796127083
252	1316753	7270.00963602269	0.00963602269
252	1317050	7270.01439603976	0.01439603976
252	1317344	7270.017876064387	0.017876064387
252	1318767	7271.020756063657	0.020756063657
252	1319401	7271.030564092973	0.030564092973
252	1320020	7271.039164127944	0.039164127944
252	1322551	7272.029276095135	0.029276095135
252	1323245	7272.052572057839	0.052572057839
252	1323853	7272.059532108476	0.059532108476
252	1326973	7273.031836128427	0.031836128427
252	1327633	7273.037836170946	0.037836170946
252	1328596	7273.061164159602	0.061164159602
255	481	1.005	1
255	558	1.01	0
255	639	1.015201116899	10
255	738	1.020201116899	0
255	1133	1.025814585908	29
255	1738	1.030814585908	55
255	2461	1.035814585908	43
255	3267	1.040814585908	15
255	4391	1.045814585908	54
255	5303	1.050814585908	59
255	6205	1.055814585908	41
255	7142	1.060814585908	49
255	7773	1.065814585908	40
255	8253	1.070814585908	18
255	8793	1.075814585908	31
255	9114	1.080814585908	12
255	9332	1.085814585908	19
255	9333	1.090814585908	0
255	9619	1.100874557449	32
255	9620	1.105874557449	0
255	9937	1.116435589936	25
255	10395	1.121435589936	35
255	10878	1.126435589936	34
255	11119	1.131435589936	23
255	11276	1.136435589936	0
255	11726	1.141484385047	42
255	11902	1.146484385047	10
255	11906	1.151484385047	0
255	12149	1.159332135078	24
255	12150	1.164332135078	0
255	12641	1.214140135078	48
255	12642	1.219140135078	0
255	17944	43.505	1
255	17957	43.51	0
255	18589	43.516905952029	9
255	19209	43.521905952029	0
255	19766	43.526905952029	0
255	20101	43.531905952029	0
255	20793	43.545955552406	0
255	21364	43.550955552406	0
255	21713	43.555955552406	0
255	22196	43.560955552406	0
255	22333	43.565955552406	0
255	22826	43.57116139116	0
255	23112	43.57616139116	0
255	23708	43.58358895479	0
255	23978	43.58858895479	0
255	24328	43.59358895479	0
255	24535	43.59858895479	0
255	24957	43.608022591014	0
255	24958	43.613022591014	0
255	25807	43.634144342285	0
255	25808	43.639144342285	0
255	26935	43.742527406591	0
255	26936	43.747527406591	0
255	27066	44.505	1
255	27073	44.51	0
255	27662	44.51854940781	9
255	28090	44.52354940781	0
255	28583	44.531825820177	0
255	28921	44.536825820177	0
255	29408	44.541825820177	0
255	29644	44.546825820177	0
255	29863	44.551825820177	0
255	30147	44.556825820177	0
255	30222	44.561825820177	0
255	30809	44.571414467582	0
255	31105	44.576414467582	0
255	32158	44.586814480581	0
255	32629	44.591814480581	0
255	33269	44.601000235347	0
255	33560	44.606000235347	0
255	34474	44.615338870863	0
255	34772	44.620338870863	0
255	34779	44.625338870863	0
255	35348	44.631652889477	0
255	35549	44.636652889477	0
255	35762	44.641668865422	0
255	35763	44.646668865422	0
255	36806	44.690634319318	0
255	37008	44.695634319318	0
255	37009	44.700634319318	0
255	37139	45.505	1
255	37146	45.51	0
255	38021	45.519135255065	17
255	38766	45.524135255065	0
255	39350	45.529135255065	0
255	39656	45.534135255065	0
255	39888	45.539135255065	0
255	40322	45.544135255065	0
255	40975	45.549135255065	0
255	41282	45.554135255065	0
255	41738	45.559135255065	0
255	42238	45.564135255065	0
255	42828	45.569135255065	0
255	43352	45.574135255065	0
255	43649	45.579135255065	0
255	44510	45.590756160192	0
255	45087	45.595756160192	0
255	45386	45.600756160192	0
255	46322	45.61202071298	0
255	47039	45.61702071298	0
255	47456	45.62202071298	0
255	47975	45.628219722972	0
255	48391	45.633219722972	0
255	48969	45.640914659734	0
255	49405	45.645914659734	0
255	50076	45.659418426475	0
255	50567	45.664418426475	0
255	51580	45.679954663362	0
255	51653	45.684954663362	0
255	52165	45.690075739498	0
255	52542	45.695075739498	0
255	53036	45.700075739498	0
255	53262	45.705075739498	0
255	53537	45.710075739498	0
255	53765	45.716465972179	0
255	53768	45.721465972179	0
255	54198	45.729844575183	0
255	54349	45.734844575183	0
255	55345	45.745769984995	0
255	55346	45.750769984995	0
255	55932	45.781237829152	0
255	56228	45.786237829152	0
255	56229	45.791237829152	0
255	56359	46.505	1
255	56369	46.51	0
255	57402	46.517461338289	21
255	58201	46.522461338289	0
255	59190	46.531902934869	0
255	59725	46.536902934869	0
255	60542	46.541902934869	0
255	61088	46.546902934869	0
255	61494	46.551902934869	0
255	61965	46.556902934869	0
255	62689	46.561902934869	0
255	63352	46.566902934869	0
255	64344	46.577072961405	0
255	64892	46.582072961405	0
255	65501	46.588889013254	0
255	66105	46.593889013254	0
255	66486	46.598889013254	0
255	67071	46.603889013254	0
255	67754	46.611793029806	0
255	68278	46.616793029806	0
255	69173	46.622572569379	0
255	69959	46.627572569379	0
255	70715	46.635280401967	0
255	71302	46.640280401967	0
255	71668	46.645280401967	0
255	71993	46.651635378155	0
255	72582	46.656635378155	0
255	72828	46.661635378155	0
255	73359	46.666635378155	0
255	74000	46.671635378155	0
255	74605	46.681047178799	0
255	74676	46.686047178799	0
255	75055	46.691249008798	0
255	75382	46.696249008798	0
255	75752	46.701249008798	0
255	76294	46.706249008798	0
255	76808	46.711249008798	0
255	77041	46.716249008798	0
255	77042	46.721249008798	0
255	77473	46.729667403797	0
255	77545	46.734667403797	0
255	77782	46.740322720425	0
255	77783	46.745322720425	0
255	78454	46.776496302111	0
255	78763	46.781496302111	0
255	79000	46.786496302111	0
255	79001	46.791496302111	0
255	79131	47.505	1
255	79141	47.51	0
255	80046	47.517219956888	17
255	80601	47.522219956888	0
255	81080	47.527219956888	0
255	81767	47.532219956888	0
255	82222	47.537219956888	0
255	82831	47.542219956888	0
255	83414	47.547219956888	0
255	83871	47.552219956888	0
255	84174	47.557219956888	0
255	84797	47.565358087049	0
255	85272	47.570358087049	0
255	85741	47.575358087049	0
255	86277	47.580358087049	0
255	86815	47.58570866976	0
255	87180	47.59070866976	0
255	87597	47.597156334249	0
255	88119	47.602156334249	0
255	88570	47.608465209806	0
255	89029	47.613465209806	0
255	89619	47.618465209806	0
255	89849	47.623465209806	0
255	90160	47.628465209806	0
255	90621	47.633465209806	0
255	91128	47.638465209806	0
255	91958	47.64850719694	0
255	92263	47.65350719694	0
255	92559	47.65850719694	0
255	92937	47.66350719694	0
255	93235	47.66850719694	0
255	93539	47.67350719694	0
255	93996	47.67850719694	0
255	94072	47.68350719694	0
255	94543	47.696663765064	0
255	94692	47.701663765064	0
255	94986	47.709264229976	0
255	95291	47.714264229976	0
255	95292	47.719264229976	0
255	95593	47.75117756963	0
255	95594	47.75617756963	0
255	96017	48.505	1
255	96024	48.51	0
255	96960	48.518686921027	22
255	98130	48.523686921027	0
255	98825	48.528686921027	0
255	99414	48.533686921027	0
255	99417	48.538686921027	0
255	102320	48.565495090149	0
255	102929	48.570495090149	0
255	103718	48.575495090149	0
255	104465	48.581418292722	0
255	104948	48.586418292722	0
255	105453	48.591418292722	0
255	106107	48.597765322766	0
255	106651	48.602765322766	0
255	107336	48.607765322766	0
255	108007	48.612765322766	0
255	108542	48.617765322766	0
255	108858	48.622765322766	0
255	109397	48.628181220245	0
255	109954	48.633181220245	0
255	110434	48.638181220245	0
255	110841	48.643181220245	0
255	111333	48.648181220245	0
255	112088	48.653181220245	0
255	112683	48.658181220245	0
255	112975	48.663181220245	0
255	113620	48.672015998408	0
255	114146	48.677015998408	0
255	115662	48.691006179111	0
255	115982	48.696006179111	0
255	116586	48.701006179111	0
255	117048	48.706006179111	0
255	117966	48.715238205555	0
255	118345	48.720238205555	0
255	118889	48.730517434216	0
255	119489	48.735517434216	0
255	120014	48.740517434216	0
255	120333	48.745517434216	0
255	121099	48.753679115595	0
255	121580	48.758679115595	0
255	122420	48.771401631033	0
255	122510	48.776401631033	0
255	122826	48.781401631033	0
255	123336	48.786401631033	0
255	123579	48.791401631033	0
255	123731	48.796401631033	0
255	124471	48.813679998612	0
255	124774	48.818679998612	0
255	125768	48.832848394591	0
255	126298	48.837848394591	0
255	126302	48.842848394591	0
255	126740	49.505	1
255	126817	49.51	0
255	128016	49.516297261257	18
255	128916	49.521297261257	0
255	129377	49.526297261257	0
255	130110	49.531297261257	0
255	130580	49.536297261257	0
255	131247	49.541297261257	0
255	132057	49.546297261257	0
255	132376	49.551297261257	0
255	132877	49.556297261257	0
255	133647	49.56395689401	0
255	134167	49.56895689401	0
255	134767	49.57395689401	0
255	135455	49.583034260288	0
255	136138	49.588034260288	0
255	136987	49.598071257874	0
255	137508	49.603071257874	0
255	137996	49.608071257874	0
255	138448	49.613071257874	0
255	140181	49.626696002697	0
255	140639	49.631696002697	0
255	141247	49.638978272362	0
255	141642	49.643978272362	0
255	142472	49.650340526576	0
255	143017	49.655340526576	0
255	143514	49.660340526576	0
255	145650	49.681770285053	0
255	145962	49.686770285053	0
255	146651	49.693887996492	0
255	147113	49.698887996492	0
255	147658	49.703887996492	0
255	148178	49.708887996492	0
255	148621	49.713887996492	0
255	148919	49.718887996492	0
255	149246	49.723887996492	0
255	149795	49.728887996492	0
255	150396	49.733887996492	0
255	150397	49.738887996492	0
255	150771	49.755636539113	0
255	151066	49.760636539113	0
255	151295	49.765636539113	0
255	151296	49.770636539113	0
255	151665	49.845810805691	0
255	151893	49.850810805691	0
255	151894	49.855810805691	0
255	152033	50.505	1
255	152298	50.51	19
255	153075	50.515	0
255	154150	50.52	0
255	155423	50.525	0
255	156117	50.53	0
255	157157	50.535	0
255	157984	50.54	0
255	158412	50.545	0
255	159212	50.550246808815	0
255	159676	50.555246808815	0
255	160504	50.560246808815	0
255	161270	50.565246808815	0
255	162041	50.570246808815	0
255	163071	50.575246808815	0
255	163437	50.580246808815	0
255	164192	50.585514522275	0
255	164427	50.590514522275	0
255	164749	50.595514522275	0
255	165382	50.600514522275	0
255	165973	50.605514522275	0
255	166943	50.610514522275	0
255	167559	50.615514522275	0
255	168073	50.620514522275	0
255	168917	50.629644235694	0
255	169499	50.634644235694	0
255	169661	50.639644235694	0
255	170044	50.644644235694	0
255	170789	50.649644235694	0
255	171419	50.654644235694	0
255	172198	50.659644235694	0
255	173028	50.664644235694	0
255	173689	50.669644235694	0
255	174275	50.674644235694	0
255	174576	50.679644235694	0
255	174897	50.685757721425	0
255	175626	50.690757721425	0
255	176322	50.706867820638	0
255	176328	50.711867820638	0
255	176698	50.716867820638	0
255	176999	50.721867820638	0
255	177250	50.726867820638	0
255	177324	50.731867820638	0
255	177659	50.737771847582	0
255	177899	50.742771847582	0
255	177900	50.747771847582	0
255	178345	51.505	1
255	178355	51.51	0
255	179383	51.517347142043	16
255	179924	51.522347142043	0
255	180855	51.52771187756	0
255	181537	51.53271187756	0
255	181790	51.538340364349	0
255	182274	51.543340364349	0
255	182683	51.548340364349	0
255	183322	51.553340364349	0
255	184069	51.558340364349	0
255	184941	51.563340364349	0
255	185616	51.568340364349	0
255	186022	51.574564266265	0
255	186479	51.579564266265	0
255	187555	51.588859020049	0
255	188338	51.593859020049	0
255	189020	51.598859020049	0
255	190012	51.609866134728	0
255	190235	51.614866134728	0
255	191424	51.623957593223	0
255	192017	51.628957593223	0
255	192627	51.63858827629	0
255	192917	51.64358827629	0
255	193217	51.648692299155	0
255	193838	51.653692299155	0
255	194073	51.658692299155	0
255	194691	51.671817707449	0
255	195076	51.676817707449	0
255	196337	51.689610138237	0
255	196869	51.694610138237	0
255	197182	51.699610138237	0
255	197617	51.704610138237	0
255	197623	51.709610138237	0
255	198000	51.717451798096	0
255	198237	51.722451798096	0
255	198309	51.727451798096	0
255	198544	51.733092015254	0
255	198844	51.738092015254	0
255	198848	51.743092015254	0
255	199159	51.750302240236	0
255	199160	51.755302240236	0
255	200046	51.803044294063	0
255	200050	51.808044294063	0
255	200363	51.82856626639	0
255	200364	51.83356626639	0
255	200515	52.505	1
255	200522	52.51	0
255	201476	52.519107255847	18
255	202218	52.524107255847	0
255	203161	52.529107255847	0
255	204118	52.534107255847	0
255	204805	52.539107255847	0
255	205655	52.544107255847	0
255	206157	52.549107255847	0
255	207018	52.554107255847	0
255	207643	52.559107255847	0
255	208530	52.564649338534	0
255	209094	52.569649338534	0
255	209560	52.574649338534	0
255	210409	52.585472636811	0
255	210978	52.590472636811	0
255	211547	52.595472636811	0
255	212263	52.600472636811	0
255	212945	52.605472636811	0
255	213397	52.610472636811	0
255	213880	52.615472636811	0
255	214538	52.620472636811	0
255	215238	52.625472636811	0
255	215645	52.630472636811	0
255	215983	52.635472636811	0
255	216607	52.640851486498	0
255	216777	52.645851486498	0
255	217485	52.651035825788	0
255	217817	52.656035825788	0
255	218145	52.661035825788	0
255	218694	52.666035825788	0
255	219006	52.671035825788	0
255	219652	52.677557080179	0
255	219964	52.682557080179	0
255	220217	52.687557080179	0
255	220681	52.692557080179	0
255	221008	52.697557080179	0
255	221951	52.72951284341	0
255	222400	52.73451284341	0
255	222711	52.76607773283	0
255	222712	52.77107773283	0
255	223355	52.81429778563	0
255	223674	52.81929778563	0
255	223968	52.82429778563	0
255	224121	53.505	1
255	224458	53.51	19
255	225406	53.515	0
255	226130	53.52	0
255	226850	53.525	0
255	227906	53.53	0
255	228403	53.535	0
255	229251	53.54	0
255	229665	53.545	0
255	229990	53.55	0
255	231548	53.561581107349	0
255	232115	53.566581107349	0
255	232786	53.572994069819	0
255	233658	53.577994069819	0
255	234201	53.582994069819	0
255	234774	53.587994069819	0
255	235490	53.592994069819	0
255	236222	53.597994069819	0
255	236782	53.602994069819	0
255	237176	53.607994069819	0
255	237773	53.612994069819	0
255	239374	53.632586410752	0
255	239998	53.637586410752	0
255	240401	53.642586410752	0
255	240886	53.647586410752	0
255	241119	53.652586410752	0
255	242178	53.663167337746	0
255	242721	53.668167337746	0
255	243292	53.673167337746	0
255	243756	53.678167337746	0
255	243828	53.683167337746	0
255	245092	53.700147428011	0
255	245498	53.705147428011	0
255	245882	53.719059383208	0
255	246364	53.724059383208	0
255	246693	53.729059383208	0
255	248509	53.852990375661	0
255	248754	53.857990375661	0
255	249072	53.862990375661	0
255	249301	53.867990375661	0
255	249396	53.872990375661	0
255	250040	53.91037349999	0
255	250047	53.91537349999	0
255	250494	54.505	1
255	250501	54.51	0
255	251554	54.518389941781	19
255	252441	54.523389941781	0
255	253234	54.528389941781	0
255	254265	54.533389941781	0
255	255214	54.538389941781	0
255	256146	54.543389941781	0
255	256422	54.548389941781	0
255	257703	54.557768336714	0
255	258468	54.562768336714	0
255	259098	54.567768336714	0
255	259975	54.572768336714	0
255	260590	54.577768336714	0
255	261081	54.582768336714	0
255	261730	54.587768336714	0
255	262151	54.592768336714	0
255	262647	54.597768336714	0
255	263345	54.602768336714	0
255	264111	54.607768336714	0
255	264698	54.612768336714	0
255	265081	54.617768336714	0
255	265566	54.622768336714	0
255	265977	54.627768336714	0
255	266671	54.632768336714	0
255	267217	54.637768336714	0
255	268330	54.656501887935	0
255	268722	54.661501887935	0
255	269044	54.666501887935	0
255	269362	54.672543990251	0
255	269939	54.677543990251	0
255	270264	54.682543990251	0
255	270709	54.687543990251	0
255	270710	54.692543990251	0
255	271433	54.70795346567	0
255	272059	54.71295346567	0
255	272310	54.71795346567	0
255	272385	54.72295346567	0
255	272637	54.728528477587	0
255	272638	54.733528477587	0
255	272971	54.758337240187	0
255	272972	54.763337240187	0
255	273296	54.798617251421	0
255	273297	54.803617251421	0
255	273698	54.829297263507	0
255	273948	54.834297263507	0
255	274249	54.839297263507	0
255	276627	70.00501	0
255	276999	70.01001	0
255	277293	70.01501	0
255	277597	70.02001	0
255	277598	70.02501	0
255	277897	71.00501	0
255	278057	71.01001	0
255	278699	71.017846031407	0
255	279024	71.022846031407	0
255	279334	71.027846031407	0
255	279723	71.032846031407	0
255	279961	71.037846031407	0
255	280276	71.042846031407	0
255	280277	71.047846031407	0
255	280571	72.00501	0
255	281037	72.01001	0
255	281044	72.01501	0
255	281662	72.021326033865	0
255	282186	72.026326033865	0
255	282583	72.031326033865	0
255	283040	72.036326033865	0
255	283041	72.041326033865	0
255	283650	72.063612099251	0
255	283651	72.068612099251	0
255	284106	73.00501	0
255	284433	73.01001	0
255	284766	73.01501	0
255	285079	73.02001	0
255	285539	73.02501	0
255	285858	73.03001	0
255	285859	73.03501	0
255	286500	73.050924097024	0
255	286892	73.055924097024	0
255	287442	73.060924097024	0
255	287776	73.065924097024	0
255	287777	73.070924097024	0
255	288103	73.090052170947	0
255	288104	73.095052170947	0
255	363099	670.00501	0
255	363399	670.01001	0
255	363760	670.01501	0
255	363994	670.02001	0
255	363995	670.02501	0
255	364453	671.00501	0
255	364783	671.01001	0
255	365099	671.01501	0
255	365424	671.02001	0
255	365731	671.02501	0
255	366054	671.03001	0
255	366205	671.03501	0
255	366430	671.04001	0
255	366678	671.045372127944	0
255	366679	671.050372127944	0
255	367127	672.00501	0
255	367439	672.01001	0
255	367760	672.01501	0
255	368058	672.02001	0
255	368440	672.02501	0
255	368900	672.03001	0
255	369434	672.03501	0
255	369897	672.04001	0
255	369898	672.04501	0
255	370353	673.00501	0
255	370683	673.01001	0
255	371013	673.01501	0
255	371393	673.02001	0
255	371704	673.02501	0
255	372269	673.03001	0
255	372738	673.03501	0
255	372973	673.04001	0
255	373136	673.04501	0
255	373388	673.050164159602	0
255	373460	673.055164159602	0
255	374043	673.060372140998	0
255	374283	673.065372140998	0
255	374370	673.070372140998	0
255	449365	1270.00501	0
255	449662	1270.01001	0
255	449959	1270.01501	0
255	450260	1270.02001	0
255	450261	1270.02501	0
255	450719	1271.00501	0
255	450906	1271.01001	0
255	451356	1271.01501	0
255	451687	1271.02001	0
255	452003	1271.02501	0
255	452452	1271.03001	0
255	452453	1271.03501	0
255	452829	1271.056612114141	0
255	453077	1271.061612114141	0
255	453078	1271.066612114141	0
255	453526	1272.00501	0
255	453838	1272.01001	0
255	454159	1272.01501	0
255	454457	1272.02001	0
255	454839	1272.02501	0
255	455140	1272.03001	0
255	455753	1272.03501	0
255	456303	1272.04001	0
255	456304	1272.04501	0
255	456762	1273.00501	0
255	457156	1273.01001	0
255	457422	1273.01501	0
255	457951	1273.02001	0
255	458347	1273.02501	0
255	458681	1273.03001	0
255	459147	1273.03501	0
255	459477	1273.04001	0
255	459796	1273.04501	0
255	459797	1273.05001	0
255	460670	1273.061972140998	0
255	461093	1273.066972140998	0
255	461094	1273.071972140998	0
255	536470	1870.00501	0
255	536767	1870.01001	0
255	537061	1870.01501	0
255	537362	1870.02001	0
255	537363	1870.02501	0
255	537821	1871.00501	0
255	538148	1871.01001	0
255	538461	1871.01501	0
255	538778	1871.02001	0
255	539316	1871.02501	0
255	540039	1871.03001	0
255	540040	1871.03501	0
255	540488	1872.00501	0
255	540797	1872.01001	0
255	541124	1872.01501	0
255	541492	1872.02001	0
255	541731	1872.02501	0
255	542035	1872.03001	0
255	542645	1872.03501	0
255	542968	1872.04001	0
255	543276	1872.04501	0
255	543277	1872.05001	0
255	543732	1873.00501	0
255	544059	1873.01001	0
255	544389	1873.01501	0
255	544702	1873.02001	0
255	545100	1873.02501	0
255	545661	1873.03001	0
255	546058	1873.03501	0
255	546681	1873.04001	0
255	547099	1873.04501	0
255	547436	1873.05001	0
255	547591	1873.05501	0
255	622443	2470.00501	0
255	622736	2470.01001	0
255	623174	2470.01501	0
255	623481	2470.02001	0
255	623482	2470.02501	0
255	623940	2471.00501	0
255	624270	2471.01001	0
255	624583	2471.01501	0
255	624894	2471.02001	0
255	625352	2471.02501	0
255	625423	2471.03001	0
255	625672	2471.035916124367	0
255	625673	2471.040916124367	0
255	626049	2471.05220411414	0
255	626297	2471.05720411414	0
255	626298	2471.06220411414	0
255	626592	2472.00501	0
255	627058	2472.01001	0
255	627379	2472.01501	0
255	627680	2472.02001	0
255	628283	2472.02501	0
255	628602	2472.03001	0
255	629059	2472.03501	0
255	629060	2472.04001	0
255	629432	2472.062012099251	0
255	629670	2472.067012099251	0
255	629671	2472.072012099251	0
255	630034	2473.00501	0
255	630362	2473.01001	0
255	630783	2473.01501	0
255	631093	2473.02001	0
255	631413	2473.02501	0
255	631783	2473.03001	0
255	632039	2473.03501	0
255	632764	2473.04001	0
255	633164	2473.04501	0
255	633491	2473.05001	0
255	633813	2473.05501	0
255	633814	2473.06001	0
255	634927	2473.096140128427	0
255	634928	2473.101140128427	0
255	709926	3070.00501	0
255	710223	3070.01001	0
255	710517	3070.01501	0
255	710818	3070.02001	0
255	710819	3070.02501	0
255	711118	3071.00501	0
255	711348	3071.01001	0
255	711917	3071.015286031407	0
255	712234	3071.020286031407	0
255	712862	3071.025286031407	0
255	713183	3071.030286031407	0
255	713496	3071.035286031407	0
255	713497	3071.040286031407	0
255	713945	3072.00501	0
255	714260	3072.01001	0
255	714581	3072.01501	0
255	714879	3072.02001	0
255	715188	3072.02501	0
255	715492	3072.03001	0
255	715874	3072.03501	0
255	716261	3072.04001	0
255	716262	3072.04501	0
255	716634	3072.064252099251	0
255	716872	3072.069252099251	0
255	716873	3072.074252099251	0
255	717328	3073.00501	0
255	717658	3073.01001	0
255	717988	3073.01501	0
255	718295	3073.02001	0
255	718609	3073.02501	0
255	718918	3073.03001	0
255	719404	3073.03501	0
255	720035	3073.04001	0
255	720371	3073.04501	0
255	720701	3073.05001	0
255	721020	3073.05501	0
255	721021	3073.06001	0
255	721344	3073.069972128426	0
255	721345	3073.074972128426	0
255	796404	3670.00501	0
255	796701	3670.01001	0
255	796995	3670.01501	0
255	797296	3670.02001	0
255	797297	3670.02501	0
255	797755	3671.00501	0
255	798088	3671.01001	0
255	798404	3671.01501	0
255	798721	3671.02001	0
255	799169	3671.02501	0
255	799488	3671.03001	0
255	799489	3671.03501	0
255	800023	3671.050284114138	0
255	800113	3671.055284114138	0
255	800561	3672.00501	0
255	800876	3672.01001	0
255	801194	3672.01501	0
255	801492	3672.02001	0
255	801873	3672.02501	0
255	802426	3672.03001	0
255	802880	3672.03501	0