version 2
run AODVScenario_1f-43-20121121-11:52:22-2300
attr configname AODVScenario_1f
attr datetime 20121121-11:52:22
attr experiment AODVScenario_1f
attr inifile AODV.ini
attr iterationvars $numNodes=93
attr iterationvars2 "$numNodes=93, $repetition=0"
attr measurement $numNodes=93
attr network csma802154net
attr numNodes 93
attr processid 2300
attr repetition 0
attr replication #0
attr resultdir results
attr runnumber 43
attr seedset 43

vector 383  csma802154net.dataCentricNetworkMan  RREQPacketFrequency  ETV
vector 384  csma802154net.dataCentricNetworkMan  RERRPacketFrequency  ETV
vector 385  csma802154net.dataCentricNetworkMan  DiscoveryPacketFrequency  ETV
vector 386  csma802154net.dataCentricNetworkMan  RegisterPacketFrequency  ETV
vector 387  csma802154net.dataCentricNetworkMan  RReplyPacketFrequency  ETV
vector 388  csma802154net.dataCentricNetworkMan  AODVDataPacketFrequency  ETV
vector 395  csma802154net.dataCentricNetworkMan  pendingRegistrationVector  ETV
vector 394  csma802154net.dataCentricNetworkMan  pendingRREQVector  ETV
vector 392  csma802154net.dataCentricNetworkMan  PendingDataPacketsVector  ETV
vector 406  csma802154net.fixhost[10].udpApp  "End-to-end delay"  ETV
vector 380  csma802154net.dataCentricNetworkMan  dataPacketE2EDelay  ETV
vector 407  csma802154net.fixhost[11].udpApp  "End-to-end delay"  ETV
vector 416  csma802154net.fixhost[20].udpApp  "End-to-end delay"  ETV
vector 410  csma802154net.fixhost[14].udpApp  "End-to-end delay"  ETV
vector 411  csma802154net.fixhost[15].udpApp  "End-to-end delay"  ETV
vector 418  csma802154net.fixhost[22].udpApp  "End-to-end delay"  ETV
vector 408  csma802154net.fixhost[12].udpApp  "End-to-end delay"  ETV
vector 421  csma802154net.fixhost[25].udpApp  "End-to-end delay"  ETV
vector 399  csma802154net.fixhost[3].udpApp  "End-to-end delay"  ETV
vector 400  csma802154net.fixhost[4].udpApp  "End-to-end delay"  ETV
vector 401  csma802154net.fixhost[5].udpApp  "End-to-end delay"  ETV
380	834067	70.011516035801	0.011516035801
380	834510	70.016596052222	0.016596052222
380	835422	70.024196078362	0.024196078362
380	838039	71.020044058045	0.020044058045
380	839116	71.049404098034	0.049404098034
380	844220	72.062084151386	0.062084151386
380	844712	72.065252133604	0.065252133604
380	845694	72.073740193137	0.073740193137
380	850602	73.042716093182	0.042716093182
380	851092	73.045164117173	0.045164117173
380	852797	73.10581216464	0.10581216464
380	968030	670.013436035801	0.013436035801
380	968473	670.018516052222	0.018516052222
380	969386	670.028996078362	0.028996078362
380	972003	671.021004058045	0.021004058045
380	973080	671.049724098035	0.049724098035
380	976313	672.024516084288	0.024516084288
380	977826	672.058892099572	0.058892099572
380	979364	672.093268134597	0.093268134597
380	983101	673.027996093183	0.027996093183
380	984635	673.057004117174	0.057004117174
380	986451	673.070612164641	0.070612164641
380	1101684	1270.012796035801	0.012796035801
380	1102127	1270.018196052222	0.018196052222
380	1103040	1270.028996078362	0.028996078362
380	1105106	1271.017236058045	0.017236058045
380	1106529	1271.028284098033	0.028284098033
380	1109560	1272.027716084288	0.027716084288
380	1111071	1272.039764099572	0.039764099572
380	1112607	1272.076380134598	0.076380134598
380	1116343	1273.032156093182	0.032156093182
380	1118198	1273.060844117174	0.060844117174
380	1119680	1273.073492164641	0.073492164641
380	1235007	1870.016316035802	0.016316035802
380	1235450	1870.021716052223	0.021716052223
380	1236362	1870.029316078363	0.029316078363
380	1238620	1871.017556058045	0.017556058045
380	1240048	1871.052284098035	0.052284098035
380	1243277	1872.026756084286	0.026756084286
380	1245391	1872.056404099569	0.056404099569
380	1246579	1872.06528414132	0.06528414132
380	1250124	1873.031516093181	0.031516093181
380	1252085	1873.043884117172	0.043884117172
380	1254158	1873.07701216464	0.07701216464
380	1369391	2470.011836035802	0.011836035802
380	1369834	2470.016276052223	0.016276052223
380	1370747	2470.025156078363	0.025156078363
380	1373749	2471.023564058045	0.023564058045
380	1374453	2471.048444098035	0.048444098035
380	1377955	2472.025476084288	0.025476084288
380	1379809	2472.036884099571	0.036884099571
380	1380785	2472.048932134598	0.048932134598
380	1385259	2473.037876117174	0.037876117174
380	1386322	2473.043532093182	0.043532093182
380	1387903	2473.07598016464	0.07598016464
380	1503136	3070.014716035801	0.014716035801
380	1503579	3070.018196052222	0.018196052222
380	1504493	3070.031236078362	0.031236078362
380	1507512	3071.027716098035	0.027716098035
380	1507979	3071.043260058045	0.043260058045
380	1511931	3072.034036133603	0.034036133603
380	1512886	3072.043204151385	0.043204151385
380	1513862	3072.051484193137	0.051484193137
380	1517406	3073.028316093182	0.028316093182
380	1519271	3073.037804117173	0.037804117173
380	1520753	3073.05020416464	0.05020416464
380	1636079	3670.013756035801	0.013756035801
380	1636522	3670.019156052222	0.019156052222
380	1637436	3670.030916078362	0.030916078362
380	1639502	3671.017556058045	0.017556058045
380	1640926	3671.032444098035	0.032444098035
380	1644513	3672.027996108945	0.027996108945
380	1645569	3672.036596126727	0.036596126727
380	1646997	3672.063972134597	0.063972134597
380	1650974	3673.028956093183	0.028956093183
380	1652382	3673.038764117173	0.038764117173
380	1653863	3673.048532164638	0.048532164638
380	1769096	4270.012476035802	0.012476035802
380	1769539	4270.016916052223	0.016916052223
380	1770452	4270.025796078362	0.025796078362
380	1772973	4271.022924058043	0.022924058043
380	1773946	4271.031804098035	0.031804098035
380	1776982	4272.027716084287	0.027716084287
380	1778386	4272.038164099572	0.038164099572
380	1779807	4272.049572134595	0.049572134595
380	1783785	4273.034716093182	0.034716093182
380	1785312	4273.044524117173	0.044524117173
380	1786903	4273.076692164639	0.076692164639
380	1902136	4870.013756035801	0.013756035801
380	1902579	4870.017236052222	0.017236052222
380	1903493	4870.030276078362	0.030276078362
380	1905559	4871.016596058045	0.016596058045
380	1906982	4871.029884098035	0.029884098035
380	1910208	4872.028036084287	0.028036084287
380	1912070	4872.060524124229	0.060524124229
380	1913046	4872.068164165981	0.068164165981
380	1917461	4873.032476093183	0.032476093183
380	1918640	4873.037484117174	0.037484117174
380	1920123	4873.069084164639	0.069084164639
380	2035449	5470.013116035801	0.013116035801
380	2035892	5470.018196052222	0.018196052222
380	2036805	5470.028676078362	0.028676078362
380	2039816	5471.027012058045	0.027012058045
380	2040302	5471.029564098035	0.029564098035
380	2044235	5472.037876133603	0.037876133603
380	2045404	5472.045196151385	0.045196151385
380	2046384	5472.072604193137	0.072604193137
380	2049929	5473.032156093182	0.032156093182
380	2051773	5473.042924117173	0.042924117173
380	2053255	5473.05628416464	0.05628416464
380	2168488	6070.010876035801	0.010876035801
380	2168931	6070.015316052222	0.015316052222
380	2169844	6070.028036078362	0.028036078362
380	2172858	6071.023236098035	0.023236098035
380	2173325	6071.031172058043	0.031172058043
380	2176371	6072.022916084288	0.022916084288
380	2177997	6072.032724099571	0.032724099571
380	2179185	6072.043204141323	0.043204141323
380	2183885	6073.041004117172	0.041004117172
380	2185532	6073.067212093182	0.067212093182
380	2186517	6073.077332164637	0.077332164637
380	2301750	6670.012156035802	0.012156035802
380	2302193	6670.016916052223	0.016916052223
380	2303107	6670.033796078362	0.033796078362
380	2306125	6671.028356098033	0.028356098033
380	2306588	6671.030532058044	0.030532058044
380	2311024	6672.044844133604	0.044844133604
380	2311511	6672.049924151386	0.049924151386
380	2312487	6672.061012193138	0.061012193138
380	2316469	6673.035996093183	0.035996093183
380	2317991	6673.044844117174	0.044844117174
380	2319582	6673.081492164641	0.081492164641
380	2434908	7270.014716035802	0.014716035802
380	2435351	7270.018516052223	0.018516052223
380	2436265	7270.036036078363	0.036036078363
380	2438330	7271.016276058045	0.016276058045
380	2439748	7271.025476098035	0.025476098035
380	2442782	7272.026436084287	0.026436084287
380	2444638	7272.040084099571	0.040084099571
380	2445613	7272.046692134597	0.046692134597
380	2450526	7273.034324093183	0.034324093183
380	2451211	7273.036844117173	0.036844117173
380	2452908	7273.06876416464	0.06876416464
383	737	1.005	1
383	744	1.01	0
383	1143	1.018836329774	20
383	2450	1.023836329774	123
383	4391	1.028836329774	47
383	6442	1.033836329774	63
383	8318	1.038836329774	109
383	10238	1.043836329774	82
383	12202	1.048836329774	95
383	13615	1.053836329774	52
383	15116	1.058836329774	101
383	16699	1.063836329774	99
383	17591	1.068836329774	43
383	18835	1.073836329774	92
383	19546	1.078836329774	35
383	21003	1.083836329774	96
383	21430	1.088836329774	27
383	22674	1.093836329774	70
383	23349	1.098836329774	61
383	23707	1.103836329774	32
383	23708	1.108836329774	0
383	24043	1.126218104085	29
383	24047	1.131218104085	0
383	24723	1.139106104085	64
383	24733	1.144106104085	0
383	26147	1.152153096055	64
383	26853	1.157153096055	66
383	27369	1.162153096055	46
383	27768	1.167153096055	22
383	27981	1.172153096055	25
383	27982	1.177153096055	0
383	28257	1.194294033327	17
383	28258	1.199294033327	0
383	36452	43.505	1
383	37550	43.51	24
383	38727	43.515	0
383	39826	43.52	0
383	40616	43.525	0
383	41490	43.53	0
383	42188	43.535	0
383	43185	43.54	0
383	43937	43.545	0
383	44841	43.55	0
383	45497	43.555	0
383	46462	43.56	0
383	47336	43.565	0
383	48200	43.57	0
383	48947	43.575	0
383	49517	43.58	0
383	50606	43.585	0
383	51187	43.59	0
383	51653	43.595	0
383	53676	43.608419650658	0
383	54622	43.613419650658	0
383	55083	43.618419650658	0
383	56061	43.623419650658	0
383	56811	43.628419650658	0
383	57808	43.633419650658	0
383	58548	43.638419650658	0
383	59334	43.643419650658	0
383	59790	43.648419650658	0
383	60635	43.653419650658	0
383	62814	43.671176478479	0
383	63036	43.676176478479	0
383	64252	43.686704227834	0
383	65181	43.691704227834	0
383	66133	43.699828457219	0
383	67017	43.704828457219	0
383	67536	43.709828457219	0
383	67886	43.714828457219	0
383	68675	43.721018667169	0
383	69222	43.726018667169	0
383	69765	43.731018667169	0
383	71093	43.742994471119	0
383	71094	43.747994471119	0
383	72004	43.757271325778	0
383	72438	43.762271325778	0
383	72771	43.785075663617	0
383	72883	43.790075663617	0
383	75080	43.887745621539	0
383	75084	43.892745621539	0
383	75278	44.505	1
383	75387	44.51	0
383	76474	44.516376960158	23
383	77586	44.521376960158	0
383	78749	44.526376960158	0
383	79528	44.531376960158	0
383	80198	44.536376960158	0
383	80857	44.541376960158	0
383	81757	44.546376960158	0
383	82220	44.551376960158	0
383	83327	44.556376960158	0
383	84100	44.561376960158	0
383	84554	44.566376960158	0
383	85341	44.571376960158	0
383	86188	44.576376960158	0
383	88041	44.587264391258	0
383	88825	44.592264391258	0
383	89291	44.597264391258	0
383	90315	44.602264391258	0
383	91052	44.607264391258	0
383	91835	44.612264391258	0
383	92523	44.617264391258	0
383	92973	44.622264391258	0
383	93741	44.627264391258	0
383	94388	44.632264391258	0
383	94949	44.637264391258	0
383	96162	44.64581465585	0
383	97206	44.65081465585	0
383	98015	44.657449540772	0
383	98745	44.662449540772	0
383	99202	44.667449540772	0
383	99555	44.672449540772	0
383	101071	44.690033565151	0
383	101305	44.695033565151	0
383	102626	44.70815228387	0
383	103059	44.71315228387	0
383	103601	44.71815228387	0
383	104145	44.72315228387	0
383	104363	44.72815228387	0
383	105012	44.737991655436	0
383	105683	44.742991655436	0
383	105794	44.747991655436	0
383	106514	44.753032437305	0
383	106940	44.758032437305	0
383	107942	44.774635791889	0
383	108698	44.779635791889	0
383	108699	44.784635791889	0
383	109146	44.79431189112	0
383	109147	44.79931189112	0
383	109341	45.505	1
383	109348	45.51	0
383	111245	45.519741020698	42
383	113143	45.524741020698	0
383	114273	45.529741020698	0
383	115663	45.534741020698	0
383	116485	45.539741020698	0
383	117600	45.544741020698	0
383	118426	45.549741020698	0
383	119715	45.554741020698	0
383	120515	45.559741020698	0
383	121519	45.564741020698	0
383	122421	45.569741020698	0
383	123525	45.574741020698	0
383	124539	45.579741020698	0
383	127452	45.591900855069	0
383	128037	45.596900855069	0
383	129837	45.603682660962	0
383	130391	45.608682660962	0
383	131303	45.614947035589	0
383	132553	45.619947035589	0
383	133257	45.624947035589	0
383	136009	45.638011974904	0
383	137315	45.643011974904	0
383	139503	45.656237853587	0
383	140118	45.661237853587	0
383	141277	45.666237853587	0
383	142571	45.671237853587	0
383	143822	45.677589409492	0
383	144909	45.682589409492	0
383	145828	45.687589409492	0
383	149422	45.706405148569	0
383	150726	45.711405148569	0
383	151923	45.716405148569	0
383	152793	45.721405148569	0
383	153560	45.726405148569	0
383	154355	45.731405148569	0
383	155781	45.740870804622	0
383	156507	45.745870804622	0
383	157900	45.750870804622	0
383	158680	45.755870804622	0
383	159575	45.760870804622	0
383	160460	45.765870804622	0
383	162534	45.778026689378	0
383	163801	45.783026689378	0
383	164501	45.788026689378	0
383	165075	45.793026689378	0
383	167179	45.801877023736	0
383	168305	45.806877023736	0
383	169254	45.811877023736	0
383	170162	45.816877023736	0
383	171182	45.822344469941	0
383	172767	45.827344469941	0
383	174957	45.838163991922	0
383	175644	45.843163991922	0
383	176455	45.848163991922	0
383	177381	45.85547273866	0
383	178069	45.86047273866	0
383	178940	45.86547273866	0
383	181218	45.879861026289	0
383	181781	45.884861026289	0
383	182874	45.889861026289	0
383	183886	45.894861026289	0
383	184743	45.899861026289	0
383	185315	45.904861026289	0
383	187637	45.921759079085	0
383	188432	45.926759079085	0
383	188657	45.931759079085	0
383	189436	45.942236008655	0
383	189877	45.947236008655	0
383	190796	45.953489092905	0
383	191385	45.958489092905	0
383	192395	45.968650809627	0
383	192744	45.973650809627	0
383	192746	45.978650809627	0
383	193218	45.992189017003	0
383	193672	45.997189017003	0
383	193866	46.505	1
383	193876	46.51	0
383	195570	46.517125775228	37
383	197036	46.522125775228	0
383	198601	46.528485642918	0
383	199446	46.533485642918	0
383	200596	46.539664906118	0
383	202157	46.544664906118	0
383	203057	46.549664906118	0
383	204322	46.554664906118	0
383	205258	46.559664906118	0
383	206254	46.564664906118	0
383	208364	46.576627154099	0
383	209465	46.581627154099	0
383	210587	46.586627154099	0
383	212084	46.594267212667	0
383	212647	46.599267212667	0
383	215397	46.611665554214	0
383	216626	46.616665554214	0
383	217620	46.621665554214	0
383	222910	46.653064978709	0
383	223819	46.658064978709	0
383	224729	46.663064978709	0
383	225713	46.668064978709	0
383	226940	46.675013855367	0
383	227857	46.680013855367	0
383	228946	46.685013855367	0
383	229966	46.690013855367	0
383	230759	46.695013855367	0
383	233003	46.70717383828	0
383	233962	46.71217383828	0
383	234666	46.71717383828	0
383	235757	46.723954486789	0
383	236698	46.728954486789	0
383	237501	46.733954486789	0
383	238501	46.738954486789	0
383	239514	46.743954486789	0
383	240402	46.748954486789	0
383	240728	46.753954486789	0
383	241974	46.762061408963	0
383	243405	46.767061408963	0
383	244406	46.772061408963	0
383	245274	46.777061408963	0
383	246587	46.784056930688	0
383	247360	46.789056930688	0
383	249633	46.80733498321	0
383	250433	46.81233498321	0
383	250893	46.81733498321	0
383	251985	46.823317519562	0
383	252647	46.828317519562	0
383	253430	46.833317519562	0
383	254105	46.838317519562	0
383	255050	46.846034021021	0
383	255612	46.851034021021	0
383	256512	46.856034021021	0
383	257079	46.861034021021	0
383	258089	46.867125429661	0
383	258791	46.872125429661	0
383	258915	46.877125429661	0
383	259143	46.882125429661	0
383	259388	46.887125429661	0
383	259938	46.892125429661	0
383	260743	46.898452512933	0
383	261301	46.903452512933	0
383	261657	46.908452512933	0
383	262107	46.913452512933	0
383	263012	46.934707586887	0
383	263587	46.939707586887	0
383	263925	46.944707586887	0
383	264841	46.969282203902	0
383	265303	46.974282203902	0
383	265304	46.979282203902	0
383	265961	47.012750432351	0
383	265962	47.017750432351	0
383	266077	47.505	1
383	266968	47.51	40
383	269035	47.515	0
383	270055	47.52	0
383	272101	47.528063997931	0
383	273152	47.533063997931	0
383	274289	47.538063997931	0
383	275706	47.543063997931	0
383	276739	47.548063997931	0
383	278128	47.557083387751	0
383	279767	47.562083387751	0
383	280752	47.567083387751	0
383	281820	47.57359094512	0
383	283079	47.57859094512	0
383	284265	47.585992312102	0
383	285616	47.590992312102	0
383	286953	47.595992312102	0
383	288082	47.600992312102	0
383	288872	47.605992312102	0
383	291655	47.622653197994	0
383	292525	47.627653197994	0
383	294585	47.638474787783	0
383	295409	47.643474787783	0
383	296882	47.650504022518	0
383	298183	47.655504022518	0
383	299030	47.660504022518	0
383	299970	47.665504022518	0
383	301057	47.670504022518	0
383	301840	47.675504022518	0
383	304295	47.687405504615	0
383	305103	47.692405504615	0
383	306271	47.699170859356	0
383	307232	47.704170859356	0
383	308317	47.709170859356	0
383	309111	47.714170859356	0
383	309692	47.719170859356	0
383	310486	47.724170859356	0
383	311606	47.729170859356	0
383	312598	47.734170859356	0
383	314864	47.749996827271	0
383	316108	47.754996827271	0
383	317447	47.759996827271	0
383	318565	47.767278787334	0
383	319319	47.772278787334	0
383	320581	47.778621717524	0
383	321618	47.783621717524	0
383	322300	47.788621717524	0
383	323083	47.793621717524	0
383	323658	47.798621717524	0
383	324330	47.803621717524	0
383	325258	47.808621717524	0
383	325702	47.813621717524	0
383	326908	47.818642235657	0
383	327885	47.823642235657	0
383	328783	47.828642235657	0
383	329604	47.833642235657	0
383	330284	47.838642235657	0
383	332297	47.849150958694	0
383	332510	47.854150958694	0
383	334033	47.865026520252	0
383	334832	47.870026520252	0
383	335411	47.875026520252	0
383	335951	47.880026520252	0
383	336881	47.886511247045	0
383	337789	47.891511247045	0
383	338342	47.896511247045	0
383	339259	47.90611495147	0
383	339829	47.91111495147	0
383	340168	47.91611495147	0
383	340813	47.92111495147	0
383	341243	47.929018972168	0
383	341347	47.934018972168	0
383	342182	47.940694147836	0
383	342618	47.945694147836	0
383	343970	47.979863678069	0
383	343971	47.984863678069	0
383	345168	48.018604140471	0
383	345502	48.023604140471	0
383	345509	48.505	1
383	345516	48.51	0
383	347124	48.518394130715	27
383	348397	48.523394130715	0
383	349615	48.528394130715	0
383	350764	48.533394130715	0
383	351529	48.538394130715	0
383	352349	48.543394130715	0
383	353335	48.548394130715	0
383	354566	48.553394130715	0
383	355318	48.558394130715	0
383	356202	48.563394130715	0
383	356904	48.568394130715	0
383	357956	48.573394130715	0
383	358974	48.578394130715	0
383	359635	48.583394130715	0
383	361252	48.588394130715	0
383	362350	48.593394130715	0
383	363576	48.598394130715	0
383	364061	48.603394130715	0
383	365280	48.608394130715	0
383	366062	48.613394130715	0
383	367187	48.618394130715	0
383	368167	48.623394130715	0
383	368938	48.628394130715	0
383	369740	48.633953806564	0
383	370220	48.638953806564	0
383	371071	48.643953806564	0
383	372273	48.656892434665	0
383	373121	48.661892434665	0
383	374692	48.672556511668	0
383	375186	48.677556511668	0
383	375435	48.682556511668	0
383	376326	48.687556511668	0
383	376791	48.692556511668	0
383	377865	48.697556511668	0
383	378921	48.702556511668	0
383	380581	48.718145982516	0
383	381378	48.723145982516	0
383	382153	48.728145982516	0
383	382504	48.733145982516	0
383	383660	48.738414480749	0
383	384445	48.743414480749	0
383	385531	48.748414480749	0
383	386110	48.753414480749	0
383	388123	48.763473990628	0
383	388581	48.768473990628	0
383	390364	48.779119048966	0
383	391141	48.784119048966	0
383	391374	48.789119048966	0
383	392296	48.794119048966	0
383	394900	48.808446508248	0
383	395440	48.813446508248	0
383	395898	48.818495917678	0
383	396802	48.823495917678	0
383	397024	48.828495917678	0
383	397740	48.833896356712	0
383	398628	48.838896356712	0
383	399558	48.843896356712	0
383	400101	48.848896356712	0
383	401468	48.871000327137	0
383	401571	48.876000327137	0
383	402362	48.886386920285	0
383	402363	48.891386920285	0
383	403499	49.505	1
383	404047	49.51	39
383	405946	49.515	0
383	407919	49.52	0
383	409278	49.525	0
383	410036	49.53	0
383	410613	49.535	0
383	411681	49.54	0
383	412920	49.545	0
383	415465	49.558022560451	0
383	416946	49.563022560451	0
383	418369	49.568022560451	0
383	419775	49.573022560451	0
383	420752	49.578022560451	0
383	422386	49.584470308203	0
383	422988	49.589470308203	0
383	423907	49.594470308203	0
383	425571	49.599470308203	0
383	426517	49.605952235082	0
383	428036	49.610952235082	0
383	429730	49.619939593079	0
383	431085	49.624939593079	0
383	432178	49.629939593079	0
383	433648	49.636090733634	0
383	434426	49.641090733634	0
383	436058	49.648280255112	0
383	436984	49.653280255112	0
383	439565	49.665155132579	0
383	440725	49.670155132579	0
383	442191	49.675155132579	0
383	443313	49.680155132579	0
383	444672	49.688896338244	0
383	446201	49.693896338244	0
383	447243	49.698896338244	0
383	448596	49.703896338244	0
383	449919	49.708896338244	0
383	450930	49.713896338244	0
383	452195	49.718896338244	0
383	453342	49.723896338244	0
383	454385	49.730222581801	0
383	455504	49.735222581801	0
383	456287	49.740482660165	0
383	457101	49.745482660165	0
383	457667	49.750482660165	0
383	458787	49.757732059066	0
383	459786	49.762732059066	0
383	460810	49.767732059066	0
383	461468	49.772732059066	0
383	463055	49.784180383428	0
383	463973	49.789180383428	0
383	465955	49.799742708538	0
383	466798	49.804742708538	0
383	467580	49.809742708538	0
383	468387	49.814742708538	0
383	469333	49.819742708538	0
383	470360	49.824742708538	0
383	470935	49.829742708538	0
383	471799	49.834742708538	0
383	472522	49.841585945513	0
383	473327	49.846585945513	0
383	473919	49.851585945513	0
383	476211	49.864148379175	0
383	476897	49.869148379175	0
383	477690	49.874148379175	0
383	478267	49.879148379175	0
383	478475	49.884148379175	0
383	479960	49.889565878265	0
383	480508	49.894565878265	0
383	481207	49.899565878265	0
383	482554	49.909994918229	0
383	482555	49.914994918229	0
383	483224	49.924729057439	0
383	483226	49.929729057439	0
383	484144	49.949964676571	0
383	484145	49.954964676571	0
383	484601	49.976828062743	0
383	484602	49.981828062743	0
383	484828	50.505	1
383	485375	50.51	32
383	486930	50.515	0
383	488734	50.52	0
383	489651	50.525	0
383	490708	50.53	0
383	491319	50.535	0
383	492756	50.54	0
383	493682	50.545	0
383	494922	50.55	0
383	495629	50.555	0
383	496770	50.56	0
383	497487	50.565	0
383	498380	50.57	0
383	500205	50.580109948387	0
383	500916	50.585109948387	0
383	502117	50.590109948387	0
383	503182	50.597972342297	0
383	503938	50.602972342297	0
383	504974	50.608442698401	0
383	505584	50.613442698401	0
383	506791	50.618442698401	0
383	507626	50.623442698401	0
383	508412	50.628448645313	0
383	509247	50.633448645313	0
383	509824	50.638448645313	0
383	510519	50.643448645313	0
383	511219	50.648448645313	0
383	513179	50.6619926636	0
383	513771	50.6669926636	0
383	514773	50.6719926636	0
383	517109	50.687998217778	0
383	517597	50.692998217778	0
383	519441	50.706476481001	0
383	520571	50.711476481001	0
383	520929	50.716476481001	0
383	521653	50.721835578061	0
383	522234	50.726835578061	0
383	523288	50.733830604978	0
383	524097	50.738830604978	0
383	525044	50.745826995934	0
383	525873	50.750826995934	0
383	526669	50.755826995934	0
383	527797	50.763009603915	0
383	527798	50.768009603915	0
383	528724	50.777784948924	0
383	529317	50.782784948924	0
383	530340	50.787784948924	0
383	530903	50.792784948924	0
383	531263	50.798189133576	0
383	531849	50.803189133576	0
383	532314	50.808189133576	0
383	532459	50.813189133576	0
383	533138	50.818189133576	0
383	533699	50.823189133576	0
383	534161	50.828189133576	0
383	534827	50.833189133576	0
383	535299	50.838189133576	0
383	535915	50.843189133576	0
383	536619	50.848189133576	0
383	536829	50.853189133576	0
383	537408	50.859197972197	0
383	537758	50.864197972197	0
383	537759	50.869197972197	0
383	539675	50.92211091846	0
383	539776	50.92711091846	0
383	540351	50.943470945278	0
383	541111	50.948470945278	0
383	541575	50.957854935163	0
383	541576	50.962854935163	0
383	542364	50.975296693036	0
383	542494	50.980296693036	0
383	542838	51.505	1
383	544075	51.51	39
383	546305	51.515	0
383	548044	51.52	0
383	548772	51.525	0
383	549596	51.53	0
383	551380	51.535425393097	0
383	552328	51.540425393097	0
383	553618	51.545625401136	0
383	554440	51.550625401136	0
383	555737	51.555871074427	0
383	556887	51.560871074427	0
383	558824	51.570182047138	0
383	560181	51.575182047138	0
383	561339	51.580182047138	0
383	562258	51.585182047138	0
383	563421	51.590182047138	0
383	565103	51.597789288297	0
383	566172	51.602789288297	0
383	566988	51.607789288297	0
383	567798	51.612789288297	0
383	569176	51.617789288297	0
383	570351	51.622789288297	0
383	572534	51.634266905409	0
383	573631	51.639266905409	0
383	574920	51.647983859587	0
383	575719	51.652983859587	0
383	578662	51.664703106793	0
383	579860	51.669703106793	0
383	581478	51.679775880682	0
383	582369	51.684775880682	0
383	583495	51.689775880682	0
383	584476	51.694775880682	0
383	586311	51.705313901585	0
383	587119	51.710313901585	0
383	587731	51.715313901585	0
383	588894	51.720313901585	0
383	589871	51.725313901585	0
383	590878	51.730313901585	0
383	591940	51.735313901585	0
383	593170	51.740313901585	0
383	594226	51.745313901585	0
383	594886	51.750313901585	0
383	595709	51.755313901585	0
383	596587	51.760313901585	0
383	597302	51.765313901585	0
383	598117	51.770313901585	0
383	598750	51.775313901585	0
383	599929	51.780313901585	0
383	602682	51.794339391528	0
383	603597	51.799339391528	0
383	604673	51.807898114993	0
383	605125	51.812898114993	0
383	605955	51.817898114993	0
383	606560	51.822898114993	0
383	607560	51.827898114993	0
383	608514	51.833219929833	0
383	609553	51.838219929833	0
383	610590	51.843219929833	0
383	611195	51.848219929833	0
383	611978	51.853219929833	0
383	612937	51.858219929833	0
383	614217	51.863219929833	0
383	614794	51.868219929833	0
383	615715	51.873596983941	0
383	616976	51.878596983941	0
383	618848	51.913214261119	0
383	619520	51.918214261119	0
383	620472	51.923214261119	0
383	620476	51.928214261119	0
383	620964	51.949971295815	0
383	621433	51.954971295815	0
383	621434	51.959971295815	0
383	621677	52.505	1
383	622832	52.51	32
383	625060	52.515	0
383	627051	52.52	0
383	628435	52.525	0
383	629110	52.53	0
383	630193	52.535	0
383	631557	52.54	0
383	633426	52.545	0
383	635079	52.55	0
383	636488	52.555	0
383	637621	52.56	0
383	638111	52.565	0
383	639267	52.57	0
383	640489	52.575	0
383	642673	52.58428761129	0
383	643689	52.58928761129	0
383	644728	52.59428761129	0
383	645944	52.59928761129	0
383	647731	52.60428761129	0
383	648991	52.609947395475	0
383	650383	52.614947395475	0
383	651563	52.619947395475	0
383	652334	52.624947395475	0
383	655541	52.640602854929	0
383	656501	52.645602854929	0
383	657649	52.650602854929	0
383	658347	52.655602854929	0
383	661227	52.668021742655	0
383	662480	52.673021742655	0
383	663502	52.678021742655	0
383	664295	52.683021742655	0
383	666066	52.692849384115	0
383	667694	52.697849384115	0
383	668802	52.702849384115	0
383	669582	52.707849384115	0
383	672732	52.72293920664	0
383	673816	52.72793920664	0
383	675048	52.73293920664	0
383	676067	52.73793920664	0
383	677342	52.743500093538	0
383	677970	52.748500093538	0
383	678635	52.753500093538	0
383	680601	52.761863996407	0
383	681209	52.766863996407	0
383	681782	52.774709840263	0
383	682641	52.779709840263	0
383	683340	52.784709840263	0
383	684728	52.789709840263	0
383	685317	52.794709840263	0
383	686340	52.80623576481	0
383	687176	52.81123576481	0
383	688584	52.823844355271	0
383	689048	52.828844355271	0
383	689534	52.836117768658	0
383	690082	52.841117768658	0
383	690933	52.846117768658	0
383	690934	52.851117768658	0
383	691887	52.860683803056	0
383	692242	52.865683803056	0
383	693278	52.870683803056	0
383	693381	52.875683803056	0
383	693741	52.882109459506	0
383	693742	52.887109459506	0
383	694230	52.920517613114	0
383	694705	52.925517613114	0
383	694706	52.930517613114	0
383	694952	53.505	1
383	695938	53.51	43
383	698098	53.515	0
383	699486	53.52	0
383	701324	53.525	0
383	702602	53.53	0
383	703525	53.535	0
383	704720	53.54	0
383	707447	53.54966386529	0
383	708661	53.55466386529	0
383	710346	53.561025725778	0
383	711282	53.566025725778	0
383	712477	53.571025725778	0
383	713833	53.576025725778	0
383	715268	53.581025725778	0
383	719352	53.599616167347	0
383	720646	53.604616167347	0
383	721496	53.609616167347	0
383	723183	53.614616167347	0
383	724330	53.619616167347	0
383	725581	53.624616167347	0
383	727371	53.635406301392	0
383	728404	53.640406301392	0
383	730013	53.647325501422	0
383	731298	53.652325501422	0
383	732573	53.657325501422	0
383	733685	53.662325501422	0
383	735568	53.672811635533	0
383	736713	53.677811635533	0
383	738195	53.682811635533	0
383	741950	53.702128965551	0
383	743368	53.707128965551	0
383	744335	53.712128965551	0
383	745935	53.719252465626	0
383	747108	53.724252465626	0
383	748755	53.729252465626	0
383	749945	53.734252465626	0
383	751653	53.739252465626	0
383	753270	53.744252465626	0
383	754728	53.749252465626	0
383	756114	53.754252465626	0
383	756811	53.759252465626	0
383	758854	53.767120136602	0
383	760127	53.772120136602	0
383	761050	53.777120136602	0
383	762500	53.782120136602	0
383	763111	53.787120136602	0
383	764151	53.793051452313	0
383	765157	53.798051452313	0
383	766096	53.803051452313	0
383	767599	53.808051452313	0
383	768415	53.813051452313	0
383	769265	53.818051452313	0
383	770455	53.823051452313	0
383	770917	53.828051452313	0
383	771592	53.833833628641	0
383	772409	53.838833628641	0
383	773686	53.845311183709	0
383	774413	53.850311183709	0
383	775349	53.855311183709	0
383	775784	53.860311183709	0
383	776625	53.867670465227	0
383	777434	53.872670465227	0
383	778272	53.877670465227	0
383	779202	53.882670465227	0
383	779834	53.887670465227	0
383	780317	53.892670465227	0
383	781169	53.897670465227	0