version 2
run AODVScenario_1f-5-20121119-11:05:40-3700
attr configname AODVScenario_1f
attr datetime 20121119-11:05:40
attr experiment AODVScenario_1f
attr inifile AODV.ini
attr iterationvars $numNodes=55
attr iterationvars2 "$numNodes=55, $repetition=0"
attr measurement $numNodes=55
attr network csma802154net
attr numNodes 55
attr processid 3700
attr repetition 0
attr replication #0
attr resultdir results
attr runnumber 5
attr seedset 5

vector 231  csma802154net.dataCentricNetworkMan  RREQPacketFrequency  ETV
vector 232  csma802154net.dataCentricNetworkMan  RERRPacketFrequency  ETV
vector 233  csma802154net.dataCentricNetworkMan  DiscoveryPacketFrequency  ETV
vector 234  csma802154net.dataCentricNetworkMan  RegisterPacketFrequency  ETV
vector 235  csma802154net.dataCentricNetworkMan  RReplyPacketFrequency  ETV
vector 236  csma802154net.dataCentricNetworkMan  AODVDataPacketFrequency  ETV
vector 243  csma802154net.dataCentricNetworkMan  pendingRegistrationVector  ETV
vector 242  csma802154net.dataCentricNetworkMan  pendingRREQVector  ETV
vector 240  csma802154net.dataCentricNetworkMan  PendingDataPacketsVector  ETV
vector 250  csma802154net.fixhost[6].udpApp  "End-to-end delay"  ETV
vector 228  csma802154net.dataCentricNetworkMan  dataPacketE2EDelay  ETV
vector 252  csma802154net.fixhost[8].udpApp  "End-to-end delay"  ETV
vector 267  csma802154net.fixhost[23].udpApp  "End-to-end delay"  ETV
vector 247  csma802154net.fixhost[3].udpApp  "End-to-end delay"  ETV
vector 254  csma802154net.fixhost[10].udpApp  "End-to-end delay"  ETV
vector 255  csma802154net.fixhost[11].udpApp  "End-to-end delay"  ETV
vector 257  csma802154net.fixhost[13].udpApp  "End-to-end delay"  ETV
vector 248  csma802154net.fixhost[4].udpApp  "End-to-end delay"  ETV
vector 258  csma802154net.fixhost[14].udpApp  "End-to-end delay"  ETV
vector 251  csma802154net.fixhost[7].udpApp  "End-to-end delay"  ETV
vector 253  csma802154net.fixhost[9].udpApp  "End-to-end delay"  ETV
vector 256  csma802154net.fixhost[12].udpApp  "End-to-end delay"  ETV
228	258079	70.036836013295	0.036836013295
228	258372	70.041596032806	0.041596032806
228	258668	70.046356048249	0.046356048249
228	259739	71.013436030456	0.013436030456
228	260043	71.017876054537	0.017876054537
228	260635	71.02835608938	0.02835608938
228	262003	72.015956066177	0.015956066177
228	262309	72.019724047648	0.019724047648
228	262922	72.031164105756	0.031164105756
228	264590	73.022284061627	0.022284061627
228	265484	73.027716097999	0.027716097999
228	265783	73.031804106485	0.031804106485
228	333734	670.010916013297	0.010916013297
228	334027	670.014396032808	0.014396032808
228	334323	670.018516048251	0.018516048251
228	335395	671.015676030456	0.015676030456
228	335698	671.019476054537	0.019476054537
228	336290	671.02643608938	0.02643608938
228	337657	672.017236066178	0.017236066178
228	338387	672.04308404765	0.04308404765
228	338995	672.050684105757	0.050684105757
228	341432	673.031492061627	0.031492061627
228	341731	673.037172098	0.037172098
228	342032	673.054772106486	0.054772106486
228	409983	1270.011556013297	0.011556013297
228	410276	1270.016316032808	0.016316032808
228	410572	1270.02107604825	0.02107604825
228	411643	1271.013116030456	0.013116030456
228	411947	1271.017876054537	0.017876054537
228	412539	1271.02675608938	0.02675608938
228	413909	1272.01787604765	0.01787604765
228	414205	1272.022924066178	0.022924066178
228	414822	1272.033404105757	0.033404105757
228	416552	1273.020684061627	0.020684061627
228	417225	1273.027004106486	0.027004106486
228	417842	1273.050364098	0.050364098
228	485841	1870.010276013297	0.010276013297
228	486135	1870.015356032808	0.015356032808
228	486430	1870.019476048251	0.019476048251
228	487501	1871.012796030456	0.012796030456
228	487805	1871.016596054537	0.016596054537
228	488397	1871.02579608938	0.02579608938
228	489767	1872.01883604765	0.01883604765
228	490063	1872.024844066178	0.024844066178
228	490680	1872.032444105756	0.032444105756
228	492033	1873.016596061627	0.016596061627
228	492956	1873.029244098	0.029244098
228	493564	1873.035252106486	0.035252106486
228	561514	2470.008356013297	0.008356013297
228	561808	2470.012796032808	0.012796032808
228	562104	2470.017556048251	0.017556048251
228	563175	2471.013436030456	0.013436030456
228	563479	2471.017236054537	0.017236054537
228	564071	2471.02611608938	0.02611608938
228	565438	2472.014356066178	0.014356066178
228	565748	2472.018764047649	0.018764047649
228	566356	2472.024764105756	0.024764105756
228	567709	2473.019796061627	0.019796061627
228	568918	2473.033724098	0.033724098
228	569217	2473.036604106486	0.036604106486
228	637167	3070.007716013297	0.007716013297
228	637461	3070.012796032808	0.012796032808
228	637757	3070.017556048251	0.017556048251
228	638828	3071.012156030456	0.012156030456
228	639132	3071.015636054537	0.015636054537
228	639723	3071.024196089379	0.024196089379
228	641087	3072.018836066177	0.018836066177
228	641394	3072.022036047649	0.022036047649
228	642006	3072.030524105756	0.030524105756
228	643359	3073.019476061627	0.019476061627
228	644415	3073.032444098	0.032444098
228	645338	3073.057900106486	0.057900106486
228	713344	3670.011236013297	0.011236013297
228	713638	3670.016316032808	0.016316032808
228	713933	3670.020116048251	0.020116048251
228	715004	3671.013756030456	0.013756030456
228	715308	3671.018836054537	0.018836054537
228	715900	3671.026436089379	0.026436089379
228	717270	3672.018516047649	0.018516047649
228	717566	3672.021324066177	0.021324066177
228	718183	3672.030844105756	0.030844105756
228	719536	3673.016276061627	0.016276061627
228	720463	3673.030204106486	0.030204106486
228	721078	3673.038700097999	0.038700097999
228	789021	4270.009316013296	0.009316013296
228	789315	4270.014396032807	0.014396032807
228	789611	4270.019476048249	0.019476048249
228	790682	4271.013756030455	0.013756030455
228	790986	4271.018836054535	0.018836054535
228	791578	4271.028676089378	0.028676089378
228	792945	4272.020756066177	0.020756066177
228	793505	4272.045964047648	0.045964047648
228	794417	4272.081012105755	0.081012105755
228	795770	4273.015636061626	0.015636061626
228	796695	4273.027644106485	0.027644106485
228	797307	4273.034612097998	0.034612097998
228	865250	4870.007716013297	0.007716013297
228	865544	4870.011516032808	0.011516032808
228	865839	4870.014996048251	0.014996048251
228	866910	4871.011836030456	0.011836030456
228	867214	4871.016916054537	0.016916054537
228	867806	4871.02611608938	0.02611608938
228	869174	4872.017236066178	0.017236066178
228	869794	4872.02445204765	0.02445204765
228	870096	4872.029564105757	0.029564105757
228	871764	4873.020044061626	0.020044061626
228	872508	4873.027716098	0.027716098
228	873123	4873.055020106486	0.055020106486
228	941128	5470.008996013297	0.008996013297
228	941422	5470.013756032808	0.013756032808
228	941718	5470.01915604825	0.01915604825
228	942789	5471.012796030456	0.012796030456
228	943093	5471.016276054537	0.016276054537
228	943684	5471.02419608938	0.02419608938
228	945048	5472.016596066177	0.016596066177
228	945354	5472.01979604765	0.01979604765
228	945966	5472.029884105756	0.029884105756
228	947605	5473.020756061627	0.020756061627
228	948278	5473.027396098	0.027396098
228	949255	5473.058292106486	0.058292106486
228	1017205	6070.008996013297	0.008996013297
228	1017499	6070.014076032808	0.014076032808
228	1017795	6070.01915604825	0.01915604825
228	1018866	6071.012476030456	0.012476030456
228	1019170	6071.017236054537	0.017236054537
228	1019762	6071.02707608938	0.02707608938
228	1021130	6072.016276066178	0.016276066178
228	1021750	6072.023556105757	0.023556105757
228	1022046	6072.02925204765	0.02925204765
228	1024032	6073.024204061626	0.024204061626
228	1024331	6073.027004106485	0.027004106485
228	1024946	6073.034292097998	0.034292097998
228	1092889	6670.008676013297	0.008676013297
228	1093183	6670.012796032807	0.012796032807
228	1093479	6670.01659604825	0.01659604825
228	1094550	6671.013116030455	0.013116030455
228	1094854	6671.016596054536	0.016596054536
228	1095446	6671.025476089379	0.025476089379
228	1096810	6672.016276066178	0.016276066178
228	1097115	6672.01979604765	0.01979604765
228	1097865	6672.049084105756	0.049084105756
228	1099859	6673.030596106485	0.030596106485
228	1100479	6673.042292097999	0.042292097999
228	1100774	6673.063668061625	0.063668061625
228	1168772	7270.007396013297	0.007396013297
228	1169066	7270.010876032808	0.010876032808
228	1169361	7270.014676048251	0.014676048251
228	1170432	7271.011836030456	0.011836030456
228	1170736	7271.015956054537	0.015956054537
228	1171327	7271.023556089379	0.023556089379
228	1172697	7272.02203604765	0.02203604765
228	1172993	7272.025484066178	0.025484066178
228	1173609	7272.035004105757	0.035004105757
228	1174962	7273.029396061626	0.029396061626
228	1175888	7273.042684106485	0.042684106485
228	1176500	7273.050292097999	0.050292097999
231	433	1.005	1
231	646	1.01	38
231	1182	1.015	28
231	2076	1.02	22
231	2801	1.025	50
231	4045	1.03	74
231	4679	1.035	33
231	5769	1.04	54
231	6757	1.045	44
231	7502	1.05	43
231	8172	1.055	42
231	8515	1.06	34
231	8701	1.065	15
231	8766	1.07	0
231	9109	1.075924881492	36
231	9110	1.080924881492	0
231	9314	1.103471567123	18
231	9315	1.108471567123	0
231	9554	1.138379101782	25
231	9555	1.143379101782	0
231	14405	43.505	1
231	15132	43.51	13
231	15587	43.515	0
231	16136	43.522267810508	0
231	16393	43.527267810508	0
231	17010	43.535155099776	0
231	17556	43.540155099776	0
231	18127	43.545155099776	0
231	18797	43.553648360814	0
231	19241	43.558648360814	0
231	19568	43.563648360814	0
231	19829	43.568648360814	0
231	20551	43.576790882733	0
231	21051	43.581790882733	0
231	21327	43.586790882733	0
231	21869	43.591790882733	0
231	22368	43.596790882733	0
231	22714	43.601790882733	0
231	23034	43.606790882733	0
231	23508	43.61274852116	0
231	23853	43.61774852116	0
231	24127	43.62274852116	0
231	24590	43.62774852116	0
231	24980	43.63274852116	0
231	25113	43.63774852116	0
231	26309	43.704487864498	0
231	26310	43.709487864498	0
231	26576	43.729870956977	0
231	26577	43.734870956977	0
231	26765	44.505	1
231	27171	44.51	15
231	28022	44.515	0
231	28493	44.52	0
231	28954	44.525	0
231	29411	44.53	0
231	29907	44.535	0
231	30502	44.54	0
231	31031	44.545	0
231	31456	44.55	0
231	31651	44.555	0
231	32332	44.562339722946	0
231	32590	44.567339722946	0
231	33327	44.57860319119	0
231	33465	44.58360319119	0
231	34000	44.589982678302	0
231	34485	44.594982678302	0
231	34804	44.599982678302	0
231	35142	44.604982678302	0
231	35415	44.609982678302	0
231	35811	44.614982678302	0
231	36010	44.619982678302	0
231	36473	44.625416783066	0
231	36474	44.630416783066	0
231	36874	44.64228797673	0
231	37005	44.64728797673	0
231	37803	44.678008798005	0
231	37868	44.683008798005	0
231	38069	44.689191993064	0
231	38404	44.694191993064	0
231	38600	44.699191993064	0
231	38601	44.704191993064	0
231	38719	45.505	1
231	38790	45.51	0
231	40018	45.516733549675	28
231	40930	45.521733549675	0
231	41760	45.529072948857	0
231	42339	45.534072948857	0
231	42716	45.539072948857	0
231	43526	45.544072948857	0
231	44169	45.549072948857	0
231	45126	45.557402127435	0
231	45529	45.562402127435	0
231	46488	45.572143378258	0
231	47042	45.577143378258	0
231	47615	45.582143378258	0
231	48107	45.587408968979	0
231	48703	45.592408968979	0
231	49468	45.597408968979	0
231	50141	45.602408968979	0
231	50720	45.607408968979	0
231	51581	45.61772390722	0
231	52324	45.62272390722	0
231	52935	45.62772390722	0
231	54974	45.647423004743	0
231	55341	45.652423004743	0
231	56027	45.657423004743	0
231	56553	45.662423004743	0
231	57854	45.67946614356	0
231	58514	45.68446614356	0
231	58888	45.68946614356	0
231	59622	45.696537474967	0
231	59961	45.701537474967	0
231	60657	45.708430608809	0
231	61203	45.713430608809	0
231	61936	45.719754783258	0
231	62461	45.724754783258	0
231	62992	45.732928408069	0
231	63341	45.737928408069	0
231	63753	45.742928408069	0
231	64379	45.747928408069	0
231	64922	45.752928408069	0
231	65329	45.757928408069	0
231	66176	45.765917026082	0
231	66839	45.770917026082	0
231	67443	45.775917026082	0
231	68103	45.785682417285	0
231	68667	45.790682417285	0
231	69093	45.795682417285	0
231	69525	45.800682417285	0
231	69990	45.805682417285	0
231	70575	45.813053985227	0
231	70862	45.818053985227	0
231	70930	45.823053985227	0
231	71355	45.828135633215	0
231	71738	45.833135633215	0
231	72245	45.838548103947	0
231	72523	45.843548103947	0
231	72525	45.848548103947	0
231	74110	45.907624794282	0
231	74114	45.912624794282	0
231	74181	45.927863203003	0
231	74391	45.932863203003	0
231	74392	45.937863203003	0
231	74580	46.505	1
231	75401	46.51	24
231	76284	46.515	0
231	76982	46.52	0
231	77458	46.525	0
231	78031	46.530087079172	0
231	78776	46.535087079172	0
231	79299	46.540087079172	0
231	79948	46.545087079172	0
231	80508	46.550087079172	0
231	81061	46.555087079172	0
231	81748	46.560087079172	0
231	82170	46.565087079172	0
231	82801	46.572439084256	0
231	83370	46.577439084256	0
231	83988	46.582439084256	0
231	84541	46.587439084256	0
231	85087	46.592439084256	0
231	86519	46.605608071133	0
231	86996	46.610608071133	0
231	87492	46.615608071133	0
231	87966	46.620608071133	0
231	88606	46.629247089803	0
231	89233	46.634247089803	0
231	89638	46.639247089803	0
231	90404	46.645158318856	0
231	91033	46.650158318856	0
231	91244	46.655158318856	0
231	92199	46.662742383618	0
231	92762	46.667742383618	0
231	93253	46.672742383618	0
231	93655	46.67961857596	0
231	94135	46.68461857596	0
231	95234	46.700287241116	0
231	95642	46.705287241116	0
231	96044	46.710287241116	0
231	96654	46.715287241116	0
231	96934	46.720287241116	0
231	97345	46.725287241116	0
231	97831	46.730287241116	0
231	98666	46.741134383152	0
231	98882	46.746134383152	0
231	99171	46.751134383152	0
231	99718	46.759042880081	0
231	99862	46.764042880081	0
231	100549	46.779090905751	0
231	100981	46.784090905751	0
231	101404	46.789090905751	0
231	101809	46.794090905751	0
231	101811	46.799090905751	0
231	102293	46.807266929163	0
231	102372	46.812266929163	0
231	104278	46.916629118922	0
231	104279	46.921629118922	0
231	104409	47.505	1
231	104818	47.51	17
231	105492	47.515	0
231	106056	47.52	0
231	106660	47.525	0
231	107186	47.53	0
231	107674	47.535	0
231	108228	47.54	0
231	108801	47.545	0
231	109314	47.55	0
231	109823	47.555	0
231	110043	47.56	0
231	110524	47.565	0
231	111084	47.57210726633	0
231	111349	47.57710726633	0
231	111782	47.585564305798	0
231	112066	47.590564305798	0
231	112484	47.595564305798	0
231	112830	47.600564305798	0
231	113115	47.605564305798	0
231	113492	47.610564305798	0
231	113829	47.615564305798	0
231	114244	47.620564305798	0
231	114791	47.625564305798	0
231	115011	47.630564305798	0
231	115221	47.635564305798	0
231	115582	47.640564305798	0
231	115803	47.645564305798	0
231	116135	47.650564305798	0
231	116481	47.656680551895	0
231	116826	47.661680551895	0
231	116974	47.666680551895	0
231	117457	47.682561590188	0
231	117671	47.687561590188	0
231	119107	47.703914067265	0
231	119172	47.708914067265	0
231	119393	47.714586082207	0
231	119394	47.719586082207	0
231	119795	48.505	1
231	120041	48.51	18
231	120799	48.515	0
231	121594	48.52	0
231	122506	48.525	0
231	122985	48.53	0
231	123851	48.537993323655	0
231	124500	48.542993323655	0
231	125099	48.547993323655	0
231	126006	48.554475446399	0
231	126536	48.559475446399	0
231	127374	48.567446896378	0
231	127979	48.572446896378	0
231	128274	48.57834543394	0
231	128917	48.58334543394	0
231	129284	48.58834543394	0
231	129717	48.59334543394	0
231	130337	48.59834543394	0
231	130963	48.60334543394	0
231	131623	48.609791534223	0
231	132180	48.614791534223	0
231	132686	48.619791534223	0
231	133248	48.624791534223	0
231	134160	48.63823955553	0
231	134580	48.64323955553	0
231	135128	48.64823955553	0
231	135550	48.65323955553	0
231	136019	48.659614591329	0
231	136377	48.664614591329	0
231	137068	48.674153449749	0
231	137415	48.679153449749	0
231	137997	48.684153449749	0
231	138483	48.689153449749	0
231	139058	48.69833995027	0
231	139059	48.70333995027	0
231	139344	48.71314116172	0
231	139630	48.71814116172	0
231	139695	48.72314116172	0
231	139924	48.729143208157	0
231	139925	48.734143208157	0
231	140212	48.751898259979	0
231	140213	48.756898259979	0
231	140350	49.505	1
231	140605	49.51	16
231	141327	49.515	0
231	142276	49.52	0
231	142650	49.525	0
231	143427	49.53	0
231	143713	49.535	0
231	144147	49.54	0
231	144714	49.545	0
231	144999	49.55	0
231	145221	49.555	0
231	145739	49.56	0
231	146295	49.565	0
231	147381	49.576017555717	0
231	147750	49.581017555717	0
231	147839	49.586017555717	0
231	148045	49.591017555717	0
231	148133	49.596017555717	0
231	149524	49.612306760003	0
231	149929	49.617306760003	0
231	150493	49.623881565185	0
231	150824	49.628881565185	0
231	151337	49.634160845001	0
231	151750	49.639160845001	0
231	152050	49.644160845001	0
231	152727	49.649160845001	0
231	153223	49.654160845001	0
231	153722	49.659160845001	0
231	153790	49.664160845001	0
231	154066	49.670098557908	0
231	154546	49.675098557908	0
231	155400	49.691609583476	0
231	155700	49.696609583476	0
231	156118	49.70351907686	0
231	156553	49.70851907686	0
231	156908	49.71351907686	0
231	157130	49.71851907686	0
231	157131	49.72351907686	0
231	157334	50.505	1
231	157737	50.51	22
231	158660	50.515	0
231	159439	50.52	0
231	159822	50.525	0
231	160523	50.53	0
231	160848	50.535	0
231	161374	50.54	0
231	161785	50.546428841361	0
231	162136	50.551428841361	0
231	162653	50.557206611995	0
231	163385	50.562206611995	0
231	163841	50.567206611995	0
231	164548	50.572206611995	0
231	165125	50.577206611995	0
231	166411	50.58954100819	0
231	166779	50.59454100819	0
231	167421	50.599573026937	0
231	167968	50.604573026937	0
231	169062	50.614280525051	0
231	169208	50.619280525051	0
231	169782	50.626592565134	0
231	170297	50.631592565134	0
231	171647	50.643472380238	0
231	171954	50.648472380238	0
231	175659	50.691365892175	0
231	176167	50.696365892175	0
231	177060	50.701365892175	0
231	177421	50.706365892175	0
231	177788	50.711365892175	0
231	178266	50.716365892175	0
231	178625	50.721365892175	0
231	179340	50.72660751941	0
231	179840	50.73160751941	0
231	180356	50.73660751941	0
231	180760	50.74160751941	0
231	181211	50.74660751941	0
231	181601	50.75160751941	0
231	182024	50.75660751941	0
231	183170	50.771535918745	0
231	183179	50.776535918745	0
231	183912	50.783752592513	0
231	184273	50.788752592513	0
231	185388	50.802333633941	0
231	185747	50.807333633941	0
231	185974	50.812333633941	0
231	186266	50.817333633941	0
231	186561	50.822333633941	0
231	186562	50.827333633941	0
231	187000	51.505	1
231	187065	51.51	0
231	187799	51.515114893464	16
231	188415	51.520114893464	0
231	188914	51.525114893464	0
231	189368	51.530114893464	0
231	189945	51.535114893464	0
231	190312	51.540114893464	0
231	190984	51.545114893464	0
231	191434	51.550114893464	0
231	191438	51.555114893464	0
231	192494	51.571936317763	0
231	192866	51.576936317763	0
231	193090	51.581936317763	0
231	193778	51.587999315124	0
231	194166	51.592999315124	0
231	194661	51.597999315124	0
231	195016	51.602999315124	0
231	195384	51.607999315124	0
231	195919	51.612999315124	0
231	196259	51.617999315124	0
231	196494	51.622999315124	0
231	196834	51.627999315124	0
231	197358	51.632999315124	0
231	197359	51.637999315124	0
231	198350	51.652844953974	0
231	198641	51.657844953974	0
231	199061	51.662844953974	0
231	199350	51.671389002005	0
231	199637	51.676389002005	0
231	199639	51.681389002005	0
231	200221	51.717447362445	0
231	200222	51.722447362445	0
231	200518	51.730939075171	0
231	200519	51.735939075171	0
231	201084	51.76977232767	0
231	201088	51.77477232767	0
231	201236	52.505	1
231	201417	52.51	12
231	201880	52.515	0
231	202354	52.52	0
231	202706	52.525	0
231	203371	52.5306894218	0
231	203949	52.5356894218	0
231	204253	52.5406894218	0
231	204974	52.54979873369	0
231	205193	52.55479873369	0
231	205861	52.559819427729	0
231	206466	52.564819427729	0
231	206686	52.569819427729	0
231	207747	52.580525514786	0
231	207978	52.585525514786	0
231	208187	52.590525514786	0
231	208785	52.595525514786	0
231	209133	52.600525514786	0
231	209492	52.605525514786	0
231	209995	52.610525514786	0
231	210343	52.615525514786	0
231	211052	52.621707460039	0
231	211331	52.626707460039	0
231	212040	52.646529426568	0
231	212122	52.651529426568	0
231	212265	52.656529426568	0
231	212924	52.669891468595	0
231	212991	52.674891468595	0
231	214077	52.696411485707	0
231	214430	52.701411485707	0
231	215547	52.746849485707	0
231	215693	52.751849485707	0
231	216322	52.782934289136	0
231	216674	52.787934289136	0
231	216675	52.792934289136	0
231	217838	52.859726880606	0
231	218048	52.864726880606	0
231	218051	52.869726880606	0
231	218338	52.874726880606	0
231	218639	52.879726880606	0
231	218774	53.505	1
231	218962	53.51	12
231	219357	53.515	0
231	220051	53.52	0
231	220655	53.525	0
231	221262	53.53	0
231	222105	53.535	0
231	222555	53.54	0
231	223046	53.545	0
231	223358	53.55	0
231	223668	53.555	0
231	224256	53.561031672508	0
231	224696	53.566031672508	0
231	225110	53.571031672508	0
231	225904	53.579961462992	0
231	226481	53.584961462992	0
231	226773	53.589961462992	0
231	227146	53.594961462992	0
231	227567	53.599961462992	0
231	227788	53.604961462992	0
231	227789	53.609961462992	0
231	228818	53.636885612668	0
231	228953	53.641885612668	0
231	229313	53.658225472578	0
231	229551	53.663225472578	0
231	229552	53.668225472578	0
231	229850	53.70490549175	0
231	229851	53.70990549175	0
231	230225	53.724065507948	0
231	230466	53.729065507948	0
231	230753	53.748568794132	0
231	230754	53.753568794132	0
231	230960	54.505	1
231	231943	54.51	20
231	233187	54.515	0
231	233779	54.52	0
231	234151	54.525	0
231	234437	54.53	0
231	234980	54.535	0
231	235791	54.541210325534	0
231	236323	54.546210325534	0
231	236838	54.551210325534	0
231	237371	54.556210325534	0
231	238031	54.561210325534	0
231	238645	54.566210325534	0
231	239104	54.571210325534	0
231	239970	54.578252805522	0
231	240727	54.583252805522	0
231	241496	54.588252805522	0
231	241806	54.593252805522	0
231	242428	54.598252805522	0
231	242921	54.603252805522	0
231	243444	54.608252805522	0
231	244243	54.613252805522	0
231	244735	54.618252805522	0
231	245181	54.624605314792	0
231	245560	54.629605314792	0
231	245696	54.634605314792	0
231	246650	54.643428392629	0
231	247175	54.648428392629	0
231	247456	54.653428392629	0
231	247825	54.660339850463	0
231	248348	54.665339850463	0
231	248824	54.670339850463	0
231	249742	54.679153657834	0
231	250087	54.684153657834	0
231	250375	54.698833348757	0
231	250658	54.703833348757	0
231	251254	54.721257681524	0
231	251470	54.726257681524	0
231	252298	54.74530438115	0
231	252586	54.75030438115	0
231	252798	54.75530438115	0
231	253746	54.810267300455	0
231	253747	54.815267300455	0
231	254032	54.829901888043	0
231	254187	54.834901888043	0
231	254623	54.855397387934	0
231	254624	54.860397387934	0
231	255679	54.906839399098	0
231	255680	54.911839399098	0
231	257924	70.00501	0
231	257925	70.01001	0
231	258435	70.041836013295	0
231	258731	70.046836013295	0
231	258824	70.051836013295	0
231	259253	71.00501	0
231	259585	71.01001	0
231	259889	71.01501	0
231	260191	71.02001	0
231	260485	71.02501	0
231	260778	71.03001	0
231	260779	71.03501	0
231	261214	72.00501	0
231	261542	72.01001	0
231	261912	72.01501	0
231	262372	72.02001	0
231	262516	72.02501	0
231	262826	72.031084091673	0
231	263062	72.036084091673	0
231	263063	72.041084091673	0
231	263391	73.00501	0
231	263721	73.01001	0
231	264025	73.01501	0
231	264339	73.02001	0
231	265041	73.02501	0
231	265624	73.03001	0
231	265927	73.03501	0
231	265928	73.04001	0
231	333493	670.00501	0
231	333644	670.01001	0
231	334172	670.015916013297	0
231	334478	670.020916013297	0
231	334479	670.025916013297	0
231	334752	671.00501	0
231	334973	671.01001	0
231	335305	671.015286019015	0
231	335840	671.020286019015	0
231	336204	671.025286019015	0
231	336433	671.030286019015	0
231	336434	671.035286019015	0
231	336866	672.00501	0
231	337194	672.01001	0
231	337503	672.01501	0
231	337930	672.02001	0
231	337931	672.02501	0
231	338838	672.04808404765	0
231	339135	672.05308404765	0
231	339136	672.05808404765	0
231	339553	673.00501	0
231	339560	673.01001	0
231	340184	673.016246029733	0
231	340502	673.021246029733	0
231	340887	673.026246029733	0
231	341267	673.031246029733	0
231	341636	673.036246029733	0
231	341868	673.041246029733	0
231	341869	673.046246029733	0
231	342176	673.059772106486	0
231	342177	673.064772106486	0
231	409742	1270.00501	0
231	409832	1270.01001	0
231	410339	1270.016556013297	0
231	410635	1270.021556013297	0
231	410728	1270.026556013297	0
231	411157	1271.00501	0
231	411489	1271.01001	0
231	411793	1271.01501	0
231	412089	1271.02001	0
231	412392	1271.02501	0
231	412682	1271.03001	0
231	412683	1271.03501	0
231	412963	1272.00501	0
231	413295	1272.01001	0
231	413749	1272.01501	0
231	414051	1272.02001	0
231	414352	1272.02501	0
231	414662	1272.03001	0
231	414962	1272.03501	0
231	414963	1272.04001	0
231	415383	1273.00501	0
231	415710	1273.01001	0
231	416023	1273.01501	0
231	416460	1273.02001	0
231	417066	1273.02501	0
231	417369	1273.03001	0
231	417370	1273.03501	0
231	417976	1273.050924082708	0
231	417980	1273.055924082708	0
231	485686	1870.00501	0
231	485751	1870.01001	0
231	486045	1870.015276013297	0
231	486585	1870.020276013297	0
231	486586	1870.025276013297	0
231	486921	1871.00501	0
231	487347	1871.01001	0
231	487654	1871.01501	0
231	488011	1871.02001	0
231	488311	1871.02501	0
231	488540	1871.03001	0
231	488541	1871.03501	0
231	488821	1872.00501	0
231	489153	1872.01001	0
231	489519	1872.01501	0
231	489909	1872.02001	0
231	490064	1872.02501	0
231	490523	1872.03001	0
231	490820	1872.03501	0
231	490821	1872.04001	0
231	491149	1873.00501	0
231	491562	1873.01001	0
231	491878	1873.01501	0
231	492474	1873.02001	0
231	492794	1873.02501	0
231	493093	1873.03001	0
231	493466	1873.03501	0
231	493708	1873.04001	0
231	493709	1873.04501	0
231	561360	2470.00501	0
231	561654	2470.01001	0
231	561953	2470.01501	0
231	562259	2470.02001	0
231	562260	2470.02501	0
231	562533	2471.00501	0
231	562935	2471.01001	0
231	563328	2471.01501	0
231	563624	2471.02001	0
231	563985	2471.02501	0
231	564214	2471.03001	0
231	564215	2471.03501	0
231	564650	2472.00501	0
231	565039	2472.01001	0
231	565582	2472.01501	0
231	565951	2472.02001	0
231	566419	2472.02501	0
231	566497	2472.03001	0
231	566763	2473.00501	0
231	567155	2473.01001	0
231	567306	2473.01501	0
231	567846	2473.02099604513	0
231	567911	2473.02599604513	0
231	568534	2473.031124069995	0
231	569119	2473.036124069995	0
231	569361	2473.041124069995	0
231	569362	2473.046124069995	0
231	637013	3070.00501	0
231	637307	3070.01001	0
231	637606	3070.01501	0
231	637912	3070.02001	0
231	637913	3070.02501	0
231	638345	3071.00501	0
231	638677	3071.01001	0
231	639042	3071.01501	0
231	639570	3071.02001	0
231	639866	3071.02501	0
231	639867	3071.03001	0
231	640299	3072.00501	0
231	640541	3072.01001	0
231	640933	3072.01501	0
231	641237	3072.02001	0
231	641539	3072.02501	0
231	641910	3072.03001	0
231	642146	3072.03501	0
231	642147	3072.04001	0
231	642564	3073.00501	0
231	642891	3073.01001	0
231	642956	3073.01501	0
231	643499	3073.02035604513	0
231	643807	3073.02535604513	0
231	644259	3073.03035604513	0
231	644552	3073.03535604513	0
231	644553	3073.04035604513	0
231	645482	3073.059100090604	0
231	645483	3073.064100090604	0
231	713103	3670.00501	0
231	713196	3670.01001	0
231	713548	3670.016236013297	0
231	714088	3670.021236013297	0
231	714089	3670.026236013297	0
231	714424	3671.00501	0
231	714850	3671.01001	0
231	715154	3671.01501	0
231	715453	3671.02001	0
231	715753	3671.02501	0
231	716043	3671.03001	0
231	716044	3671.03501	0
231	716476	3672.00501	0
231	716804	3672.01001	0
231	717107	3672.01501	0
231	717418	3672.02001	0
231	717719	3672.02501	0
231	718087	3672.03001	0
231	718323	3672.03501	0
231	718324	3672.04001	0
231	718741	3673.00501	0
231	719071	3673.01001	0
231	719384	3673.01501	0
231	719673	3673.02001	0
231	719984	3673.02501	0
231	720365	3673.03001	0
231	720671	3673.03501	0
231	721215	3673.04001	0
231	721216	3673.04501	0
231	788719	4270.00501	0
231	789158	4270.01001	0
231	789454	4270.01501	0
231	789674	4270.02001	0
231	789767	4270.02501	0
231	790196	4271.00501	0
231	790525	4271.01001	0
231	790832	4271.01501	0
231	791128	4271.02001	0
231	791428	4271.02501	0
231	791721	4271.03001	0
231	791722	4271.03501	0
231	792154	4272.00501	0
231	792155	4272.01001	0
231	792791	4272.01816602218	0
231	793218	4272.02316602218	0
231	793219	4272.02816602218	0
231	793650	4272.050964047648	0
231	793651	4272.055964047648	0
231	794321	4272.080932091673	0
231	794557	4272.085932091673	0
231	794558	4272.090932091673	0
231	794975	4273.00501	0
231	795305	4273.01001	0
231	795677	4273.01501	0
231	796214	4273.02001	0
231	796530	4273.02501	0
231	796995	4273.03001	0
231	797370	4273.03501	0
231	797445	4273.04001	0
231	865096	4870.00501	0
231	865393	4870.01001	0
231	865840	4870.01501	0
231	865995	4870.02001	0
231	866424	4871.00501	0
231	866759	4871.01001	0
231	867063	4871.01501	0
231	867359	4871.02001	0
231	867720	4871.02501	0
231	867949	4871.03001	0
231	867950	4871.03501	0
231	868292	4872.00501	0
231	868713	4872.01001	0
231	869019	4872.01501	0
231	869327	4872.02001	0
231	869933	4872.02501	0
231	870159	4872.03001	0
231	870237	4872.03501	0
231	870654	4873.00501	0
231	870978	4873.01001	0
231	871294	4873.01501	0
231	871671	4873.02001	0
231	872217	4873.02501	0
231	872648	4873.03001	0
231	872649	4873.03501	0
231	873267	4873.056220090604	0
231	873268	4873.061220090604	0
231	940974	5470.00501	0
231	941268	5470.01001	0
231	941564	5470.01501	0
231	941873	5470.02001	0
231	941874	5470.02501	0
231	942303	5471.00501	0
231	942635	5471.01001	0
231	942945	5471.01501	0
231	943299	5471.02001	0
231	943827	5471.02501	0
231	943828	5471.03001	0
231	944260	5472.00501	0
231	944588	5472.01001	0
231	944897	5472.01501	0
231	945420	5472.02001	0
231	945806	5472.02501	0
231	945967	5472.03001	0
231	946107	5472.03501	0
231	946524	5473.00501	0
231	946851	5473.01001	0
231	946916	5473.01501	0
231	947528	5473.02035604513	0
231	948061	5473.02535604513	0
231	948491	5473.03035604513	0
231	948492	5473.03535604513	0
231	949399	5473.059172090604	0
231	949400	5473.064172090604	0
231	1017051	6070.00501	0