file 264677 1353325404                                          
version 2
run AODVScenario_1f-75-20121119-11:42:34-2876
attr configname AODVScenario_1f
attr datetime 20121119-11:42:34
attr experiment AODVScenario_1f
attr inifile AODV.ini
attr iterationvars $numNodes=125
attr iterationvars2 "$numNodes=125, $repetition=0"
attr measurement $numNodes=125
attr network csma802154net
attr numNodes 125
attr processid 2876
attr repetition 0
attr replication #0
attr resultdir results
attr runnumber 75
attr seedset 75

vector 511  csma802154net.dataCentricNetworkMan  RREQPacketFrequency  ETV
vector 512  csma802154net.dataCentricNetworkMan  RERRPacketFrequency  ETV
vector 513  csma802154net.dataCentricNetworkMan  DiscoveryPacketFrequency  ETV
vector 514  csma802154net.dataCentricNetworkMan  RegisterPacketFrequency  ETV
vector 515  csma802154net.dataCentricNetworkMan  RReplyPacketFrequency  ETV
vector 516  csma802154net.dataCentricNetworkMan  AODVDataPacketFrequency  ETV
vector 523  csma802154net.dataCentricNetworkMan  pendingRegistrationVector  ETV
vector 522  csma802154net.dataCentricNetworkMan  pendingRREQVector  ETV
vector 520  csma802154net.dataCentricNetworkMan  PendingDataPacketsVector  ETV
vector 537  csma802154net.fixhost[13].udpApp  "End-to-end delay"  ETV
vector 508  csma802154net.dataCentricNetworkMan  dataPacketE2EDelay  ETV
vector 547  csma802154net.fixhost[23].udpApp  "End-to-end delay"  ETV
vector 528  csma802154net.fixhost[4].udpApp  "End-to-end delay"  ETV
vector 529  csma802154net.fixhost[5].udpApp  "End-to-end delay"  ETV
vector 532  csma802154net.fixhost[8].udpApp  "End-to-end delay"  ETV
vector 534  csma802154net.fixhost[10].udpApp  "End-to-end delay"  ETV
vector 525  csma802154net.fixhost[1].udpApp  "End-to-end delay"  ETV
vector 527  csma802154net.fixhost[3].udpApp  "End-to-end delay"  ETV
vector 530  csma802154net.fixhost[6].udpApp  "End-to-end delay"  ETV
508	1874 5325 1545994 3591539 70.073636028075 7273.057044108547 117 0.006436028075 0.082180108548 2.907635612497 0.10453640753818
511	7199 40112 1133 3591827 1.005 7273.06228409441 1395 0 153 3958 362888
512	47311 40048 1133 3591827 1.005 7273.06228409441 1395 0 0 0 0
513	87359 40048 1133 3591827 1.005 7273.06228409441 1395 0 0 0 0
514	127407 40048 1133 3591827 1.005 7273.06228409441 1395 0 1 12 12
515	167455 40065 1133 3591827 1.005 7273.06228409441 1395 0 162 2013 134225
516	207520 40071 1133 3591827 1.005 7273.06228409441 1395 0 162 1511 113087
520	247591 10346 1544859 3591539 70 7273.057044108547 338 0 3 325 533
522	257937 913 67761 1502123 43.50001 54.563489845416 33 0 1 16 16
523	258850 502 67756 1518889 43.5 54.647050113648 21 0 4 47 131
525	259352 595 1558902 3590263 73.026404066313 7273.033196066311 13 0.019116066313 0.048980066313 0.383076862063 0.012289979845503
527	259947 595 1559667 3589576 73.037316083076 7273.027396083073 13 0.025156083075 0.076212083075 0.481365079981 0.020863497275197
528	260542 595 1551163 3581723 71.024236064164 7271.021996064163 13 0.017196064164 0.030812064164 0.292452834122 0.0067249428253838
529	261137 583 1552442 3583001 71.048804087231 7271.04496408723 13 0.019116087231 0.048804087231 0.419629133991 0.015148259656388
530	261720 595 1560980 3591539 73.062484108549 7273.057044108547 13 0.031196108549 0.082180108548 0.593197411128 0.029796073436981
532	262315 595 1553988 3584547 72.007396026184 7272.007396026183 13 0.006756026184 0.010276026184 0.104788340389 0.00085581497549868
534	262910 577 1554597 3585156 72.01151605611 7272.012796056109 13 0.01087605611 0.014076056109 0.160908729426 0.002002391385033
537	263487 595 1545994 3576554 70.073636028075 7270.012196028075 13 0.006436028075 0.073636028075 0.179028364974 0.0063829824204157
547	264082 595 1547301 3577861 70.081876065879 7270.020756065879 13 0.014036065879 0.081876065879 0.293188856423 0.010472465717783
