file 196092 1353323201                                          
version 2
run AODVScenario_1f-8-20121119-11:06:28-2328
attr configname AODVScenario_1f
attr datetime 20121119-11:06:28
attr experiment AODVScenario_1f
attr inifile AODV.ini
attr iterationvars $numNodes=58
attr iterationvars2 "$numNodes=58, $repetition=0"
attr measurement $numNodes=58
attr network csma802154net
attr numNodes 58
attr processid 2328
attr repetition 0
attr replication #0
attr resultdir results
attr runnumber 8
attr seedset 8

vector 243  csma802154net.dataCentricNetworkMan  RREQPacketFrequency  ETV
vector 244  csma802154net.dataCentricNetworkMan  RERRPacketFrequency  ETV
vector 245  csma802154net.dataCentricNetworkMan  DiscoveryPacketFrequency  ETV
vector 246  csma802154net.dataCentricNetworkMan  RegisterPacketFrequency  ETV
vector 247  csma802154net.dataCentricNetworkMan  RReplyPacketFrequency  ETV
vector 248  csma802154net.dataCentricNetworkMan  AODVDataPacketFrequency  ETV
vector 255  csma802154net.dataCentricNetworkMan  pendingRegistrationVector  ETV
vector 254  csma802154net.dataCentricNetworkMan  pendingRREQVector  ETV
vector 252  csma802154net.dataCentricNetworkMan  PendingDataPacketsVector  ETV
vector 258  csma802154net.fixhost[2].udpApp  "End-to-end delay"  ETV
vector 240  csma802154net.dataCentricNetworkMan  dataPacketE2EDelay  ETV
vector 263  csma802154net.fixhost[7].udpApp  "End-to-end delay"  ETV
vector 267  csma802154net.fixhost[11].udpApp  "End-to-end delay"  ETV
vector 261  csma802154net.fixhost[5].udpApp  "End-to-end delay"  ETV
vector 265  csma802154net.fixhost[9].udpApp  "End-to-end delay"  ETV
vector 269  csma802154net.fixhost[13].udpApp  "End-to-end delay"  ETV
vector 266  csma802154net.fixhost[10].udpApp  "End-to-end delay"  ETV
vector 272  csma802154net.fixhost[16].udpApp  "End-to-end delay"  ETV
vector 273  csma802154net.fixhost[17].udpApp  "End-to-end delay"  ETV
vector 262  csma802154net.fixhost[6].udpApp  "End-to-end delay"  ETV
vector 264  csma802154net.fixhost[8].udpApp  "End-to-end delay"  ETV
vector 274  csma802154net.fixhost[18].udpApp  "End-to-end delay"  ETV
240	2080 6998 297946 1286865 70.034516048335 7273.051892094491 156 0.006756013691 0.125028098793 4.869458819688 0.21113969727337
243	9078 27624 457 1287022 1.005 7273.060204057782 987 0 61 814 27694
244	36702 27596 457 1287022 1.005 7273.060204057782 987 0 0 0 0
245	64298 27596 457 1287022 1.005 7273.060204057782 987 0 0 0 0
246	91894 27596 457 1287022 1.005 7273.060204057782 987 0 1 12 12
247	119490 27608 457 1287022 1.005 7273.060204057782 987 0 58 963 20693
248	147098 27612 457 1287022 1.005 7273.060204057782 987 0 51 939 17137
252	174710 12651 296635 1286865 70 7273.051892094491 416 0 3 520 1040
254	187361 1155 15385 271600 43.50001 54.60439264918 42 0 1 16 16
255	188516 578 15380 293266 43.5 54.823273451626 24 0 1 12 12
258	189094 586 297946 1278595 70.034516048335 7270.056772048336 13 0.015636048335 0.056772048336 0.311244628363 0.0090866258803895
261	189680 586 299962 1279351 71.010596013691 7271.008356013692 13 0.006756013691 0.012196013691 0.112148177991 0.00099673287897203
262	190266 586 306045 1285593 73.022924050145 7273.016596050145 13 0.014676050145 0.027652050144 0.26683665188 0.0056378325367902
263	190852 586 298579 1277221 70.063524083803 7270.029036083804 13 0.021676083804 0.099788083804 0.540157089443 0.029793348341894
264	191438 586 306669 1286227 73.029284072653 7273.043684072655 13 0.023524072655 0.049764072654 0.439076944508 0.015850324489746
265	192024 586 300262 1279652 71.014396027837 7271.012476027838 13 0.010236027838 0.017596027837 0.166988361888 0.0021881899850727
266	192610 586 302430 1282332 72.024876066017 7272.028572066016 13 0.018476066016 0.059860066017 0.366436858219 0.011871099725917
267	193196 586 299186 1277967 70.073012098791 7270.037244098794 13 0.025156098794 0.125028098793 0.664149284312 0.045197165930641
269	193782 586 300572 1279962 71.018836036728 7271.016596036729 13 0.014356036729 0.021076036728 0.22310847747 0.003866540116836
272	194368 570 304006 1283727 72.0628041045 7272.059604104499 13 0.0308761045 0.0628041045 0.568029358495 0.026668604173494
273	194938 584 304307 1283092 72.065892135289 7272.035956135288 13 0.032436135289 0.065892135289 0.642989758746 0.033850217321424
274	195522 570 306992 1286865 73.04051609449 7273.051892094491 13 0.02732409449 0.06053209449 0.568293228373 0.026133015892196
