version 2
run AODVScenario_1f-31-20121116-00:02:00-2076
attr configname AODVScenario_1f
attr datetime 20121116-00:02:00
attr experiment AODVScenario_1f
attr inifile AODV.ini
attr iterationvars $numNodes=81
attr iterationvars2 "$numNodes=81, $repetition=0"
attr measurement $numNodes=81
attr network csma802154net
attr numNodes 81
attr processid 2076
attr repetition 0
attr replication #0
attr resultdir results
attr runnumber 31
attr seedset 31

vector 335  csma802154net.dataCentricNetworkMan  RREQPacketFrequency  ETV
vector 336  csma802154net.dataCentricNetworkMan  RERRPacketFrequency  ETV
vector 337  csma802154net.dataCentricNetworkMan  DiscoveryPacketFrequency  ETV
vector 338  csma802154net.dataCentricNetworkMan  RegisterPacketFrequency  ETV
vector 339  csma802154net.dataCentricNetworkMan  RReplyPacketFrequency  ETV
vector 340  csma802154net.dataCentricNetworkMan  AODVDataPacketFrequency  ETV
vector 347  csma802154net.dataCentricNetworkMan  pendingRegistrationVector  ETV
vector 346  csma802154net.dataCentricNetworkMan  pendingRREQVector  ETV
vector 344  csma802154net.dataCentricNetworkMan  PendingDataPacketsVector  ETV
vector 365  csma802154net.fixhost[17].udpApp  "End-to-end delay"  ETV
vector 332  csma802154net.dataCentricNetworkMan  dataPacketE2EDelay  ETV
vector 360  csma802154net.fixhost[12].udpApp  "End-to-end delay"  ETV
vector 367  csma802154net.fixhost[19].udpApp  "End-to-end delay"  ETV
vector 354  csma802154net.fixhost[6].udpApp  "End-to-end delay"  ETV
vector 355  csma802154net.fixhost[7].udpApp  "End-to-end delay"  ETV
vector 356  csma802154net.fixhost[8].udpApp  "End-to-end delay"  ETV
vector 350  csma802154net.fixhost[2].udpApp  "End-to-end delay"  ETV
vector 357  csma802154net.fixhost[9].udpApp  "End-to-end delay"  ETV
vector 349  csma802154net.fixhost[1].udpApp  "End-to-end delay"  ETV
vector 364  csma802154net.fixhost[16].udpApp  "End-to-end delay"  ETV
vector 369  csma802154net.fixhost[21].udpApp  "End-to-end delay"  ETV
vector 366  csma802154net.fixhost[18].udpApp  "End-to-end delay"  ETV
vector 341  csma802154net.dataCentricNetworkMan  AODVDataLineBreakVector  ETV
332	531555	70.020116066452	0.020116066452
332	532377	70.025524038686	0.025524038686
332	533990	70.077388101786	0.077388101786
332	534994	71.008036019557	0.008036019557
332	535392	71.01247603559	0.01247603559
332	535790	71.01755605435	0.01755605435
332	538518	72.025796095849	0.025796095849
332	539980	72.037164132358	0.037164132358
332	541244	72.060460077112	0.060460077112
332	543705	73.023596064762	0.023596064762
332	545960	73.085028108158	0.085028108158
332	546363	73.104516091436	0.104516091436
332	646972	670.011516038687	0.011516038687
332	648220	670.043684098857	0.043684098857
332	648625	670.048124118699	0.048124118699
332	649629	671.006756019557	0.006756019557
332	650027	671.01119603559	0.01119603559
332	650424	671.01467605435	0.01467605435
332	653150	672.026436077111	0.026436077111
332	654000	672.031804095848	0.031804095848
332	655287	672.046124132357	0.046124132357
332	657937	673.02263606476	0.02263606476
332	658327	673.024804091434	0.024804091434
332	659605	673.035924135208	0.035924135208
332	760195	1270.013436038687	0.013436038687
332	761444	1270.044644098857	0.044644098857
332	761849	1270.0510041187	0.0510041187
332	762853	1271.008036019557	0.008036019557
332	763251	1271.013436035589	0.013436035589
332	763649	1271.018836054349	0.018836054349
332	766795	1272.025796077111	0.025796077111
332	768064	1272.033404095849	0.033404095849
332	768507	1272.036276132358	0.036276132358
332	770960	1273.021676064762	0.021676064762
332	771761	1273.048092091436	0.048092091436
332	773044	1273.06330013521	0.06330013521
332	873715	1870.015996038686	0.015996038686
332	874733	1870.043724066451	0.043724066451
332	875553	1870.072092101786	0.072092101786
332	876557	1871.007076019556	0.007076019556
332	876955	1871.011196035589	0.011196035589
332	877353	1871.016276054348	0.016276054348
332	880270	1872.02547607711	0.02547607711
332	882124	1872.077812095847	0.077812095847
332	882996	1872.086052132356	0.086052132356
332	886150	1873.020396064762	0.020396064762
332	887495	1873.030876135211	0.030876135211
332	888306	1873.047844091436	0.047844091436
332	988735	2470.012796038687	0.012796038687
332	989569	2470.022924066453	0.022924066453
332	990385	2470.034012101788	0.034012101788
332	991389	2471.008356019557	0.008356019557
332	991787	2471.01311603559	0.01311603559
332	992185	2471.01819605435	0.01819605435
332	995523	2472.030524095849	0.030524095849
332	995964	2472.033972077112	0.033972077112
332	997243	2472.058604132358	0.058604132358
332	1000728	2473.026116096997	0.026116096997
332	1001329	2473.029596135209	0.029596135209
332	1001732	2473.051324122731	0.051324122731
332	1102580	3070.016244038687	0.016244038687
332	1103415	3070.030564098857	0.030564098857
332	1103821	3070.0417241187	0.0417241187
332	1104826	3071.011876019557	0.011876019557
332	1105223	3071.01599603559	0.01599603559
332	1105621	3071.01947605435	0.01947605435
332	1108527	3072.028356077111	0.028356077111
332	1109389	3072.053564095847	0.053564095847
332	1110675	3072.067492132356	0.067492132356
332	1114136	3073.028036096998	0.028036096998
332	1117747	3073.17064412273	0.17064412273
332	1118615	3073.17700413521	0.17700413521
332	1219523	3670.016636038687	0.016636038687
332	1220133	3670.020044066453	0.020044066453
332	1220950	3670.046564101788	0.046564101788
332	1221954	3671.007716019557	0.007716019557
332	1222352	3671.01247603559	0.01247603559
332	1222750	3671.01723605435	0.01723605435
332	1225653	3672.027076095847	0.027076095847
332	1226725	3672.051004077111	0.051004077111
332	1310014	3672.585512369766	0.585512369766
332	1312471	3673.02871606476	0.02871606476
332	1383026	3673.399254273769	0.399254273769
332	1486921	4270.022316098856	0.022316098856
332	1487326	4270.026116118699	0.026116118699
332	1487738	4270.037756038686	0.037756038686
332	1488750	4271.008036019556	0.008036019556
332	1489148	4271.011516035589	0.011516035589
332	1489546	4271.015316054348	0.015316054348
332	1492220	4272.028676083159	0.028676083159
332	1493075	4272.035324101895	0.035324101895
332	1494330	4272.083884140835	0.083884140835
332	1497217	4273.026116095215	0.026116095215
332	1498029	4273.044644064761	0.044644064761
332	1595295	4273.52642080781	0.52642080781
332	1701540	4870.012476038687	0.012476038687
332	1702370	4870.022924066453	0.022924066453
332	1703186	4870.030244101788	0.030244101788
332	1704190	4871.008036019557	0.008036019557
332	1704588	4871.01151603559	0.01151603559
332	1704986	4871.01563605435	0.01563605435
332	1707855	4872.026756081038	0.026756081038
332	1709136	4872.053884099775	0.053884099775
332	1710394	4872.080612138718	0.080612138718
332	1716352	4873.037924064761	0.037924064761
332	1775092	4873.255196095214	0.255196095214
332	1914623	5470.039924038687	0.039924038687
332	1915233	5470.043404066453	0.043404066453
332	1916051	5470.070564101788	0.070564101788
332	1917055	5471.008356019557	0.008356019557
332	1917453	5471.01311603559	0.01311603559
332	1917851	5471.01787605435	0.01787605435
332	1921234	5472.103876079972	0.103876079972
332	1922401	5472.111660098709	0.111660098709
332	1923025	5472.13725213765	0.13725213765
332	1926247	5473.02608408228	0.02608408228
332	1926347	5473.026156064762	0.026156064762
332	1927797	5473.049684122896	0.049684122896
332	2028805	6070.018516066453	0.018516066453
332	2029210	6070.020724038687	0.020724038687
332	2030041	6070.046884101788	0.046884101788
332	2031045	6071.009316019557	0.009316019557
332	2031443	6071.01471603559	0.01471603559
332	2031841	6071.01947605435	0.01947605435
332	2034707	6072.025796079972	0.025796079972
332	2035979	6072.052852098708	0.052852098708
332	2036829	6072.061412137651	0.061412137651
332	2039621	6073.022956082279	0.022956082279
332	2039728	6073.02416406476	0.02416406476
332	2041789	6073.061132122895	0.061132122895
332	2142617	6670.015604038687	0.015604038687
332	2143040	6670.020364066453	0.020364066453
332	2144050	6670.052892101786	0.052892101786
332	2145054	6671.009636019557	0.009636019557
332	2145452	6671.01311603559	0.01311603559
332	2145850	6671.01691605435	0.01691605435
332	2148730	6672.023236079972	0.023236079972
332	2149591	6672.051892098709	0.051892098709
332	2150848	6672.06582013765	0.06582013765
332	2153546	6673.021356082279	0.021356082279
332	2154050	6673.023596064762	0.023596064762
332	2155406	6673.060172122895	0.060172122895
332	2255897	7270.012476038687	0.012476038687
332	2256909	7270.020684066451	0.020684066451
332	2257730	7270.050012101786	0.050012101786
332	2258734	7271.007716019557	0.007716019557
332	2259132	7271.01215603559	0.01215603559
332	2259530	7271.01755605435	0.01755605435
332	2262389	7272.026436098708	0.026436098708
332	2264503	7272.06212413765	0.06212413765
332	2264929	7272.06575607997	0.06575607997
332	2267597	7273.020076064762	0.020076064762
332	2268011	7273.02384408228	0.02384408228
332	2269286	7273.037772122895	0.037772122895
335	641	1.005	1
335	738	1.01	0
335	1184	1.01592733009	42
335	2222	1.02092733009	58
335	3571	1.02592733009	68
335	4962	1.03092733009	79
335	6622	1.03592733009	54
335	8124	1.04092733009	32
335	9258	1.04592733009	84
335	10955	1.05092733009	71
335	12085	1.05592733009	47
335	12768	1.06092733009	46
335	13484	1.06592733009	58
335	14103	1.07092733009	36
335	14542	1.07592733009	24
335	15118	1.08092733009	47
335	15650	1.08592733009	21
335	16202	1.09092733009	44
335	16864	1.09592733009	65
335	17120	1.10092733009	36
335	17124	1.10592733009	0
335	17659	1.113886666893	40
335	17750	1.118886666893	0
335	18009	1.125274763759	35
335	18639	1.130274763759	62
335	19336	1.135274763759	57
335	19979	1.140274763759	59
335	20748	1.145274763759	74
335	21346	1.150274763759	44
335	21944	1.155274763759	50
335	22419	1.160274763759	5
335	22946	1.165274763759	57
335	22947	1.170274763759	0
335	23493	1.18281707829	43
335	23494	1.18781707829	0
335	30542	43.505	1
335	30944	43.51	29
335	32307	43.515	0
335	33304	43.52	0
335	34433	43.525	0
335	35285	43.53	0
335	36265	43.536052731411	0
335	37441	43.541052731411	0
335	38148	43.546052731411	0
335	39020	43.551322608159	0
335	39499	43.556322608159	0
335	40383	43.56245058031	0
335	41345	43.56745058031	0
335	42129	43.57245058031	0
335	42804	43.57745058031	0
335	43661	43.58245058031	0
335	44357	43.58745058031	0
335	45861	43.597376422092	0
335	46262	43.602376422092	0
335	49855	43.629588769838	0
335	50987	43.634588769838	0
335	51565	43.639588769838	0
335	52359	43.644588769838	0
335	53636	43.655162629084	0
335	54201	43.660162629084	0
335	55325	43.667693453704	0
335	55950	43.672693453704	0
335	56469	43.677693453704	0
335	57392	43.682693453704	0
335	58088	43.687693453704	0
335	59623	43.697978996609	0
335	60330	43.702978996609	0
335	60652	43.707978996609	0
335	61519	43.712978996609	0
335	62283	43.717978996609	0
335	63108	43.722978996609	0
335	63683	43.727978996609	0
335	64285	43.73355675589	0
335	64596	43.73855675589	0
335	64707	43.74355675589	0
335	65581	43.74855675589	0
335	66444	43.75355675589	0
335	67126	43.75855675589	0
335	67512	43.76355675589	0
335	68100	43.77282279488	0
335	69240	43.77782279488	0
335	69336	43.78282279488	0
335	70537	43.792749348007	0
335	70950	43.797749348007	0
335	71837	43.802749348007	0
335	72802	43.809523848575	0
335	72806	43.814523848575	0
335	73409	43.825494339864	0
335	73701	43.830494339864	0
335	74482	43.836184823358	0
335	74952	43.841184823358	0
335	75355	43.846184823358	0
335	75359	43.851184823358	0
335	75753	43.861905574245	0
335	75754	43.866905574245	0
335	76141	43.946355584637	0
335	76142	43.951355584637	0
335	76312	44.505	1
335	76319	44.51	0
335	77506	44.519531177391	18
335	78104	44.524531177391	0
335	79297	44.532085987032	0
335	79975	44.537085987032	0
335	80463	44.542085987032	0
335	81407	44.547085987032	0
335	82201	44.552085987032	0
335	82953	44.557085987032	0
335	83645	44.562085987032	0
335	84130	44.567085987032	0
335	84738	44.572085987032	0
335	85711	44.577085987032	0
335	86302	44.582085987032	0
335	86978	44.587085987032	0
335	87650	44.592085987032	0
335	88318	44.597085987032	0
335	88601	44.602085987032	0
335	88991	44.607938078391	0
335	89398	44.612938078391	0
335	89997	44.617938078391	0
335	90568	44.622938078391	0
335	90756	44.627938078391	0
335	91044	44.63341430381	0
335	91140	44.63841430381	0
335	91995	44.644590576268	0
335	92295	44.649590576268	0
335	92780	44.654590576268	0
335	93169	44.659590576268	0
335	93171	44.664590576268	0
335	94022	44.673108796174	0
335	94319	44.678108796174	0
335	94692	44.686622593254	0
335	94693	44.691622593254	0
335	95076	44.719416568958	0
335	95473	44.724416568958	0
335	95474	44.729416568958	0
335	95856	44.744383184018	0
335	95857	44.749383184018	0
335	96241	44.760182600609	0
335	96242	44.765182600609	0
335	96797	45.505	1
335	96894	45.51	0
335	98273	45.515901431354	25
335	99230	45.520901431354	0
335	100510	45.528681771389	0
335	101572	45.533681771389	0
335	102190	45.538681771389	0
335	103082	45.543681771389	0
335	103690	45.548681771389	0
335	105043	45.559321512814	0
335	105454	45.564321512814	0
335	106050	45.569321512814	0
335	106813	45.574321512814	0
335	107891	45.580930520105	0
335	108737	45.585930520105	0
335	109434	45.590930520105	0
335	110049	45.595930520105	0
335	110672	45.600930520105	0
335	111383	45.605930520105	0
335	112009	45.610930520105	0
335	112709	45.615930520105	0
335	113649	45.620930520105	0
335	114269	45.627171247412	0
335	114926	45.632171247412	0
335	116701	45.645646348411	0
335	117281	45.650646348411	0
335	118871	45.660798359641	0
335	119364	45.665798359641	0
335	120479	45.671283031438	0
335	121452	45.676283031438	0
335	122534	45.683381240235	0
335	122939	45.688381240235	0
335	123744	45.693492500905	0
335	124345	45.698492500905	0
335	125238	45.703492500905	0
335	125625	45.708492500905	0
335	126046	45.713492500905	0
335	126588	45.718492500905	0
335	127475	45.725606388629	0
335	127928	45.730606388629	0
335	128890	45.743211297285	0
335	129398	45.748211297285	0
335	130183	45.753211297285	0
335	130958	45.758211297285	0
335	131740	45.763211297285	0
335	132583	45.768211297285	0
335	133579	45.779282947877	0
335	133584	45.784282947877	0
335	134401	45.794570778549	0
335	135057	45.799570778549	0
335	135751	45.810765644073	0
335	135755	45.815765644073	0
335	136167	45.822326077035	0
335	136574	45.827326077035	0
335	136961	45.832326077035	0
335	137357	45.843689529934	0
335	137358	45.848689529934	0
335	137537	46.505	1
335	137954	46.51	15
335	138801	46.515	0
335	139912	46.52	0
335	140658	46.525	0
335	141109	46.53	0
335	141514	46.53515504159	0
335	141975	46.54015504159	0
335	143102	46.549404195479	0
335	143771	46.554404195479	0
335	144551	46.560208905722	0
335	144957	46.565208905722	0
335	145840	46.570853279095	0
335	146323	46.575853279095	0
335	148104	46.592555058726	0
335	148768	46.597555058726	0
335	149343	46.602555058726	0
335	150122	46.607555058726	0
335	150691	46.612555058726	0
335	151384	46.621702081229	0
335	152065	46.626702081229	0
335	152635	46.631702081229	0
335	153026	46.636702081229	0
335	153308	46.641702081229	0
335	153594	46.646702081229	0
335	154156	46.651702081229	0
335	154629	46.656702081229	0
335	156095	46.694519705578	0
335	156461	46.699519705578	0
335	156470	46.704519705578	0
335	157222	46.712199977923	0
335	157224	46.717199977923	0
335	157606	46.726403466051	0
335	157607	46.731403466051	0
335	157783	47.505	1
335	158071	47.51	16
335	158831	47.515	0
335	159683	47.52	0
335	160496	47.525219757322	0
335	161253	47.530219757322	0
335	161645	47.535219757322	0
335	162060	47.540219757322	0
335	162627	47.545219757322	0
335	163034	47.550219757322	0
335	163515	47.555219757322	0
335	165094	47.575184599473	0
335	165591	47.580184599473	0
335	166355	47.585184599473	0
335	166820	47.590184599473	0
335	167610	47.595734938004	0
335	168107	47.600734938004	0
335	169571	47.612568617876	0
335	170140	47.617568617876	0
335	170693	47.622568617876	0
335	171862	47.638707517407	0
335	172356	47.643707517407	0
335	173130	47.648707517407	0
335	173898	47.653707517407	0
335	174083	47.658707517407	0
335	175556	47.669917237557	0
335	175561	47.674917237557	0
335	176315	47.691338273837	0
335	176319	47.696338273837	0
335	176896	47.704171531809	0
335	177171	47.709171531809	0
335	177476	47.714712994855	0
335	177872	47.719712994855	0
335	177873	47.724712994855	0
335	178049	48.505	1
335	178381	48.51	20
335	179482	48.515	0
335	180251	48.52	0
335	181821	48.5291332479	0
335	182319	48.5341332479	0
335	182743	48.5391332479	0
335	183452	48.5441332479	0
335	184156	48.5491332479	0
335	184955	48.5541332479	0
335	185457	48.5591332479	0
335	186127	48.5641332479	0
335	186803	48.5691332479	0
335	187591	48.576205796983	0
335	188171	48.581205796983	0
335	188683	48.586205796983	0
335	189560	48.591205796983	0
335	190042	48.596205796983	0
335	190836	48.601593198525	0
335	191733	48.606593198525	0
335	192391	48.611593198525	0
335	193360	48.616593198525	0
335	193665	48.621593198525	0
335	194325	48.626593198525	0
335	194930	48.635334300832	0
335	195704	48.640334300832	0
335	196298	48.645334300832	0
335	196870	48.650334300832	0
335	197661	48.655334300832	0
335	198428	48.660334300832	0
335	198905	48.665334300832	0
335	199768	48.679979865396	0
335	200169	48.684979865396	0
335	200945	48.689979865396	0
335	201339	48.694979865396	0
335	201905	48.699979865396	0
335	202298	48.704979865396	0
335	202683	48.711659504807	0
335	203284	48.716659504807	0
335	203761	48.721659504807	0
335	204751	49.505	1
335	204848	49.51	0
335	206292	49.516827500216	33
335	207775	49.521827500216	0
335	209167	49.526827500216	0
335	210275	49.531827500216	0
335	211555	49.536827500216	0
335	212284	49.541827500216	0
335	213513	49.546827500216	0
335	214416	49.551827500216	0
335	216042	49.556827500216	0
335	216832	49.561827500216	0
335	217581	49.566827500216	0
335	218960	49.571827500216	0
335	219956	49.576827500216	0
335	221285	49.581827500216	0
335	222582	49.5875494658	0
335	223291	49.5925494658	0
335	224346	49.5975494658	0
335	225049	49.6025494658	0
335	226135	49.6075494658	0
335	227280	49.616173061562	0
335	227918	49.621173061562	0
335	229288	49.626173061562	0
335	230194	49.631173061562	0
335	230883	49.636173061562	0
335	232057	49.641173061562	0
335	233074	49.647035654074	0
335	234130	49.652035654074	0
335	234938	49.657035654074	0
335	235427	49.663421625678	0
335	236576	49.668421625678	0
335	237186	49.673421625678	0
335	237699	49.678421625678	0
335	238718	49.683421625678	0
335	239516	49.688421625678	0
335	240381	49.693421625678	0
335	241180	49.698421625678	0
335	241959	49.703421625678	0
335	242518	49.708421625678	0
335	243720	49.716435933653	0
335	244197	49.721435933653	0
335	245814	49.729254986992	0
335	246796	49.734254986992	0
335	247981	49.739254986992	0
335	249139	49.744254986992	0
335	249755	49.749254986992	0
335	250487	49.754254986992	0
335	251759	49.761618313425	0
335	252392	49.766618313425	0
335	253376	49.77187427524	0
335	254532	49.77687427524	0
335	255177	49.78187427524	0
335	255803	49.78687427524	0
335	256721	49.793923068538	0
335	257405	49.798923068538	0
335	258205	49.803923068538	0
335	259495	49.808923068538	0
335	260582	49.813923068538	0
335	261104	49.818923068538	0
335	261702	49.823923068538	0
335	261898	49.828923068538	0
335	262403	49.833923068538	0
335	263014	49.838923068538	0
335	263338	49.843923068538	0
335	264234	49.854101019644	0
335	264948	49.859101019644	0
335	265351	49.864101019644	0
335	265355	49.869101019644	0
335	265543	50.505	1
335	265553	50.51	0
335	267341	50.517134872972	43
335	269346	50.522134872972	0
335	270851	50.527134872972	0
335	272691	50.532134872972	0
335	273477	50.537134872972	0
335	275109	50.543854727043	0
335	276630	50.548854727043	0
335	277773	50.553854727043	0
335	279157	50.558854727043	0
335	280133	50.563854727043	0
335	281438	50.568854727043	0
335	282625	50.573854727043	0
335	283925	50.578854727043	0
335	284890	50.583854727043	0
335	287520	50.598417432573	0
335	288706	50.603417432573	0
335	289854	50.608417432573	0
335	291339	50.613417432573	0
335	292507	50.618417432573	0
335	294015	50.623417432573	0
335	295139	50.628417432573	0
335	296362	50.63420145591	0
335	297267	50.63920145591	0
335	298182	50.646076657707	0
335	298918	50.651076657707	0
335	300103	50.656076657707	0
335	301614	50.662538080783	0
335	302915	50.667538080783	0
335	304041	50.672538080783	0
335	304744	50.677538080783	0
335	307423	50.693265817944	0
335	308555	50.698265817944	0
335	309857	50.706784504285	0
335	310851	50.711784504285	0
335	311199	50.716784504285	0
335	312025	50.721784504285	0
335	312929	50.726784504285	0
335	314012	50.731784504285	0
335	314838	50.736784504285	0
335	315712	50.741784504285	0
335	316802	50.746784504285	0
335	317734	50.751784504285	0
335	318350	50.756784504285	0
335	319941	50.762856288181	0
335	321004	50.767856288181	0
335	323305	50.77860210154	0
335	324109	50.78360210154	0
335	325070	50.78860210154	0
335	325969	50.79360210154	0
335	326681	50.79860210154	0
335	327216	50.80360210154	0
335	327950	50.80860210154	0
335	328455	50.81360210154	0
335	329330	50.818782283704	0
335	330241	50.823782283704	0
335	331193	50.828782283704	0
335	332310	50.836255312611	0
335	333038	50.841255312611	0
335	333132	50.846255312611	0
335	333873	50.851255312611	0
335	334479	50.856255312611	0
335	335303	50.861255312611	0
335	335986	50.866255312611	0
335	336917	50.871255312611	0
335	337526	50.876255312611	0
335	337618	50.881255312611	0
335	337944	50.886823812658	0
335	338378	50.891823812658	0
335	338876	50.896823812658	0
335	339603	50.901823812658	0
335	339694	50.906823812658	0
335	340929	50.952634296463	0
335	341659	50.957634296463	0
335	341756	50.962634296463	0
335	342063	50.967634296463	0
335	342064	50.972634296463	0
335	342663	51.035764310283	0
335	343072	51.040764310283	0
335	343467	51.045764310283	0
335	343862	51.050764310283	0
335	343990	51.505	1
335	345053	51.51	29
335	346436	51.515	0
335	347255	51.52	0
335	348170	51.527567350284	0
335	348894	51.532567350284	0
335	349724	51.537567350284	0
335	350727	51.542567350284	0
335	352107	51.549707522833	0
335	353238	51.554707522833	0
335	354150	51.559707522833	0
335	355658	51.564707522833	0
335	356652	51.569707522833	0
335	357567	51.574707522833	0
335	358005	51.579707522833	0
335	358915	51.584707522833	0
335	359499	51.589707522833	0
335	361540	51.60365664058	0
335	362191	51.60865664058	0
335	363119	51.614058657349	0
335	363847	51.619058657349	0
335	364461	51.624058657349	0
335	365048	51.629569551613	0
335	365890	51.634569551613	0
335	366617	51.639569551613	0
335	367099	51.644569551613	0
335	368017	51.650084732041	0
335	368716	51.655084732041	0
335	369131	51.660084732041	0
335	370022	51.665084732041	0
335	371135	51.670981761317	0
335	372172	51.675981761317	0
335	372572	51.680981761317	0
335	373482	51.68770986212	0
335	374407	51.69270986212	0
335	375363	51.69770986212	0
335	376184	51.70270986212	0
335	376718	51.70770986212	0
335	378249	51.714664128948	0
335	378945	51.719664128948	0
335	380089	51.727629268969	0
335	380701	51.732629268969	0
335	381444	51.737629268969	0
335	382265	51.742629268969	0
335	382842	51.747629268969	0
335	383376	51.752629268969	0
335	384308	51.757629268969	0
335	385136	51.762629268969	0
335	385861	51.767629268969	0
335	386718	51.772629268969	0
335	387618	51.777629268969	0
335	388648	51.782629268969	0
335	389063	51.789115548982	0
335	389803	51.794115548982	0
335	390411	51.799115548982	0
335	391018	51.804115548982	0
335	391522	51.809115548982	0
335	392250	51.814115548982	0
335	392341	51.819115548982	0
335	392666	51.825730340155	0
335	392667	51.830730340155	0
335	393394	51.840012791721	0
335	393598	51.845012791721	0
335	393937	51.850979254589	0
335	393938	51.855979254589	0
335	394352	51.879076159224	0
335	394353	51.884076159224	0
335	394771	51.924502096542	0
335	394772	51.929502096542	0
335	395190	51.960846123419	0
335	395191	51.965846123419	0
335	395376	52.505	1
335	395383	52.51	0
335	396202	52.518979976519	10
335	396927	52.523979976519	0
335	397439	52.528979976519	0
335	398541	52.533979976519	0
335	399421	52.538979976519	0
335	400123	52.543979976519	0
335	401008	52.548979976519	0
335	401738	52.553979976519	0
335	402302	52.558979976519	0
335	402998	52.563979976519	0
335	403781	52.56953376859	0
335	404054	52.57453376859	0
335	405023	52.58915393034	0
335	405119	52.59415393034	0
335	405917	52.599429362537	0
335	406810	52.604429362537	0
335	407199	52.609429362537	0
335	407596	52.614429362537	0
335	408078	52.619429362537	0
335	408679	52.624429362537	0
335	409194	52.629429362537	0
335	409195	52.634429362537	0
335	409576	52.665616161176	0
335	409577	52.670616161176	0
335	409763	53.505	1
335	409773	53.51	0
335	411546	53.517629771908	39
335	412989	53.522629771908	0
335	414698	53.527629771908	0
335	416244	53.532629771908	0
335	417159	53.537629771908	0
335	418275	53.542786469034	0
335	419620	53.547786469034	0
335	420651	53.552786469034	0
335	421662	53.557786469034	0
335	423296	53.564818797423	0
335	424470	53.569818797423	0
335	425500	53.574818797423	0
335	426792	53.579818797423	0
335	427529	53.584818797423	0
335	428902	53.589818797423	0
335	429759	53.594818797423	0
335	431018	53.601859528245	0
335	431920	53.606859528245	0
335	432866	53.612130008407	0
335	434000	53.617130008407	0
335	434918	53.622130008407	0
335	435883	53.627130008407	0
335	436805	53.632130008407	0
335	437673	53.637130008407	0
335	438895	53.642130008407	0
335	440242	53.647130008407	0
335	441370	53.652130008407	0
335	442259	53.657130008407	0
335	443326	53.664458810868	0
335	444123	53.669458810868	0
335	444904	53.674907722669	0
335	445891	53.679907722669	0
335	448679	53.69498978513	0
335	449770	53.69998978513	0
335	450678	53.70498978513	0
335	451615	53.70998978513	0
335	453034	53.716941199893	0
335	453925	53.721941199893	0
335	454884	53.726941199893	0
335	456452	53.733962414928	0
335	457316	53.738962414928	0
335	458479	53.746243744796	0
335	459245	53.751243744796	0
335	460518	53.756243744796	0
335	462043	53.761243744796	0
335	463038	53.766243744796	0
335	463679	53.771243744796	0
335	464179	53.776243744796	0
335	465694	53.784883184389	0
335	466852	53.789883184389	0
335	467712	53.794883184389	0
335	469144	53.803192008405	0
335	470108	53.808192008405	0
335	470808	53.813192008405	0
335	471651	53.818192008405	0
335	472182	53.823192008405	0
335	473035	53.831710096812	0
335	473907	53.836710096812	0
335	474745	53.841710096812	0
335	475274	53.846710096812	0
335	475793	53.851710096812	0
335	477811	53.866056790162	0
335	478114	53.871056790162	0
335	479186	53.878359919489	0
335	479518	53.883359919489	0
335	479912	53.888359919489	0
335	480340	53.893359919489	0
335	480341	53.898359919489	0
335	480765	53.913647647052	0
335	480766	53.918647647052	0
335	481052	54.505	1
335	482099	54.51	21
335	483452	54.515	0
335	484168	54.52	0
335	485403	54.525	0
335	486308	54.53	0
335	487432	54.535	0
335	488046	54.54	0
335	489391	54.546802771648	0
335	490620	54.551802771648	0
335	491823	54.556802771648	0
335	492433	54.561802771648	0
335	493432	54.566802771648	0
335	494580	54.571802771648	0
335	495120	54.576802771648	0
335	496492	54.581802771648	0
335	497310	54.586802771648	0
335	498022	54.591802771648	0
335	499233	54.596802771648	0
335	499856	54.601802771648	0
335	500665	54.606802771648	0
335	501296	54.611802771648	0
335	503385	54.627884939993	0
335	504265	54.632884939993	0
335	505400	54.640868966286	0
335	505898	54.645868966286	0
335	507242	54.657427239744	0
335	507752	54.662427239744	0
335	508371	54.667427239744	0
335	509387	54.676224178278	0
335	509801	54.681224178278	0
335	512369	54.694859979942	0
335	513101	54.699859979942	0
335	513524	54.704859979942	0
335	513948	54.709859979942	0
335	515451	54.716520931156	0
335	516054	54.721520931156	0
335	516998	54.727499254299	0
335	517595	54.732499254299	0
335	517920	54.737499254299	0
335	518739	54.74354800896	0
335	519066	54.74854800896	0
335	519571	54.75354800896	0
335	520193	54.75854800896	0
335	520898	54.76354800896	0
335	521286	54.76854800896	0
335	522091	54.776242279086	0
335	522094	54.781242279086	0
335	522515	54.786242279086	0
335	522917	54.791242279086	0
335	523721	54.796242279086	0
335	524140	54.801242279086	0
335	524659	54.806242279086	0
335	524775	54.811242279086	0
335	526393	54.890329861647	0
335	526394	54.895329861647	0
335	527224	54.909706404577	0
335	527228	54.914706404577	0
335	530519	70.00501	0
335	530523	70.01001	0
335	531338	70.016556028	0
335	531756	70.021556028	0
335	532671	70.026556028	0
335	532765	70.031556028	0
335	534191	70.082388101786	0
335	534192	70.087388101786	0
335	534789	71.00501	0
335	535190	71.01001	0
335	535588	71.01501	0
335	535986	71.02001	0
335	535987	71.02501	0
335	536588	72.00501	0
335	537018	72.01001	0
335	537452	72.01501	0
335	537866	72.02001	0
335	538386	72.02501	0
335	539241	72.03001	0
335	539762	72.03501	0
335	540185	72.04001	0
335	540186	72.04501	0
335	541333	72.060700063717	0
335	541458	72.065700063717	0
335	542060	73.00501	0
335	542494	73.01001	0
335	542585	73.01501	0
335	543311	73.020996043585	0
335	543892	73.025996043585	0
335	543893	73.030996043585	0
335	544716	73.051852075821	0
335	545114	73.056852075821	0
335	545828	73.084340119406	0
335	546157	73.089340119406	0
335	546158	73.094340119406	0
335	546579	73.109516091436	0
335	546580	73.114516091436	0
335	646167	670.00501	0
335	646584	670.01001	0
335	647184	670.01501	0
335	647185	670.02001	0
335	648013	670.041724057997	0
335	648421	670.046724057997	0
335	648826	670.051724057997	0
335	648827	670.056724057997	0
335	649427	671.00501	0
335	649912	671.01001	0
335	650513	671.01501	0
335	650621	671.02001	0
335	651222	672.00501	0
335	651652	672.01001	0
335	652089	672.01501	0
335	652503	672.02001	0
335	652930	672.02501	0
335	653782	672.03001	0
335	654312	672.03501	0
335	654726	672.04001	0
335	655156	672.04501	0
335	655492	672.05001	0
335	655493	672.05501	0
335	655888	673.00501	0
335	656526	673.01001	0
335	656934	673.01501	0
335	657346	673.02001	0
335	658416	673.02501	0
335	659042	673.03001	0
335	659473	673.03501	0
335	659802	673.04001	0
335	659803	673.04501	0
335	759390	1270.00501	0
335	759801	1270.01001	0
335	760407	1270.01501	0
335	760408	1270.02001	0
335	761237	1270.042364057997	0
335	761639	1270.047364057997	0
335	762050	1270.052364057997	0
335	762051	1270.057364057997	0
335	762648	1271.00501	0
335	763046	1271.01001	0
335	763444	1271.01501	0
335	763845	1271.02001	0