file 254643 1353499785                                          
version 2
run AODVScenario_1f-69-20121121-12:09:10-3028
attr configname AODVScenario_1f
attr datetime 20121121-12:09:10
attr experiment AODVScenario_1f
attr inifile AODV.ini
attr iterationvars $numNodes=119
attr iterationvars2 "$numNodes=119, $repetition=0"
attr measurement $numNodes=119
attr network csma802154net
attr numNodes 119
attr processid 3028
attr repetition 0
attr replication #0
attr resultdir results
attr runnumber 69
attr seedset 69

vector 487  csma802154net.dataCentricNetworkMan  RREQPacketFrequency  ETV
vector 488  csma802154net.dataCentricNetworkMan  RERRPacketFrequency  ETV
vector 489  csma802154net.dataCentricNetworkMan  DiscoveryPacketFrequency  ETV
vector 490  csma802154net.dataCentricNetworkMan  RegisterPacketFrequency  ETV
vector 491  csma802154net.dataCentricNetworkMan  RReplyPacketFrequency  ETV
vector 492  csma802154net.dataCentricNetworkMan  AODVDataPacketFrequency  ETV
vector 499  csma802154net.dataCentricNetworkMan  pendingRegistrationVector  ETV
vector 498  csma802154net.dataCentricNetworkMan  pendingRREQVector  ETV
vector 496  csma802154net.dataCentricNetworkMan  PendingDataPacketsVector  ETV
vector 503  csma802154net.fixhost[3].udpApp  "End-to-end delay"  ETV
vector 484  csma802154net.dataCentricNetworkMan  dataPacketE2EDelay  ETV
vector 504  csma802154net.fixhost[4].udpApp  "End-to-end delay"  ETV
vector 507  csma802154net.fixhost[7].udpApp  "End-to-end delay"  ETV
vector 513  csma802154net.fixhost[13].udpApp  "End-to-end delay"  ETV
vector 515  csma802154net.fixhost[15].udpApp  "End-to-end delay"  ETV
vector 514  csma802154net.fixhost[14].udpApp  "End-to-end delay"  ETV
vector 523  csma802154net.fixhost[23].udpApp  "End-to-end delay"  ETV
vector 511  csma802154net.fixhost[11].udpApp  "End-to-end delay"  ETV
vector 505  csma802154net.fixhost[5].udpApp  "End-to-end delay"  ETV
vector 502  csma802154net.fixhost[2].udpApp  "End-to-end delay"  ETV
484	1946 5938 1048873 3081270 70.008356019714 7273.059532097015 130 0.007076019713 0.110980083618 4.596673519898 0.22164337403553
487	7884 38023 945 3081556 1.005 7273.065412085935 1336 0 156 3591 290727
488	45907 37960 945 3081556 1.005 7273.065412085935 1336 0 0 0 0
489	83867 37960 945 3081556 1.005 7273.065412085935 1336 0 0 0 0
490	121827 37960 945 3081556 1.005 7273.065412085935 1336 0 1 12 12
491	159787 37974 945 3081556 1.005 7273.065412085935 1336 0 129 1624 68514
492	197761 37979 945 3081556 1.005 7273.065412085935 1336 0 129 1364 59134
496	235740 11246 1047876 3081270 70 7273.059532097015 364 0 3 390 702
498	246986 1194 61354 972221 43.50001 54.804711211701 43 0 1 16 16
499	248180 525 61349 866857 43.5 54.5 22 0 2 19 27
502	248705 595 1069239 3081270 73.098324097018 7273.059532097015 13 0.027996097016 0.098324097018 0.61229326123 0.033828107750241
503	249300 595 1048873 3060323 70.008356019714 7270.007076019713 13 0.007076019713 0.008996019714 0.10542825628 0.00086016052478809
504	249895 595 1049983 3061433 70.016596047484 7270.015636047483 13 0.015636047483 0.021324047484 0.234732617288 0.0042804327399219
505	250490 595 1068010 3080040 73.035636126766 7273.040044126763 13 0.032436126767 0.067812126767 0.63438964796 0.032980009494145
507	251085 595 1050546 3061996 70.018196048768 7270.017236048767 13 0.015956048768 0.042444048768 0.31348463398 0.0087607866238515
511	251680 583 1062415 3074138 72.032236067931 7272.05289206793 13 0.01847606793 0.075220067931 0.445828883097 0.018730529642703
513	252263 595 1054504 3067707 71.064876046749 7271.039380046748 13 0.021356046749 0.064876046749 0.410028607734 0.014945151120639
514	252858 595 1058046 3067139 71.110980083618 7271.030876083617 13 0.028316083618 0.110980083618 0.679133087023 0.042682713974264
515	253453 595 1056862 3069502 71.102444110539 7271.059564110538 13 0.041324110536 0.102444110539 0.813757436993 0.054365464590039
523	254048 595 1061183 3072902 72.021676083717 7272.020716083716 13 0.020716083716 0.049052083716 0.347597088313 0.010210017574939
