version 2
run AODVScenario_1f-13-20121119-11:07:58-596
attr configname AODVScenario_1f
attr datetime 20121119-11:07:58
attr experiment AODVScenario_1f
attr inifile AODV.ini
attr iterationvars $numNodes=63
attr iterationvars2 "$numNodes=63, $repetition=0"
attr measurement $numNodes=63
attr network csma802154net
attr numNodes 63
attr processid 596
attr repetition 0
attr replication #0
attr resultdir results
attr runnumber 13
attr seedset 13

vector 263  csma802154net.dataCentricNetworkMan  RREQPacketFrequency  ETV
vector 264  csma802154net.dataCentricNetworkMan  RERRPacketFrequency  ETV
vector 265  csma802154net.dataCentricNetworkMan  DiscoveryPacketFrequency  ETV
vector 266  csma802154net.dataCentricNetworkMan  RegisterPacketFrequency  ETV
vector 267  csma802154net.dataCentricNetworkMan  RReplyPacketFrequency  ETV
vector 268  csma802154net.dataCentricNetworkMan  AODVDataPacketFrequency  ETV
vector 275  csma802154net.dataCentricNetworkMan  pendingRegistrationVector  ETV
vector 274  csma802154net.dataCentricNetworkMan  pendingRREQVector  ETV
vector 269  csma802154net.dataCentricNetworkMan  AODVDataLineBreakVector  ETV
vector 272  csma802154net.dataCentricNetworkMan  PendingDataPacketsVector  ETV
vector 282  csma802154net.fixhost[6].udpApp  "End-to-end delay"  ETV
vector 260  csma802154net.dataCentricNetworkMan  dataPacketE2EDelay  ETV
vector 285  csma802154net.fixhost[9].udpApp  "End-to-end delay"  ETV
vector 284  csma802154net.fixhost[8].udpApp  "End-to-end delay"  ETV
vector 292  csma802154net.fixhost[16].udpApp  "End-to-end delay"  ETV
vector 298  csma802154net.fixhost[22].udpApp  "End-to-end delay"  ETV
vector 317  csma802154net.fixhost[41].udpApp  "End-to-end delay"  ETV
vector 277  csma802154net.fixhost[1].udpApp  "End-to-end delay"  ETV
vector 280  csma802154net.fixhost[4].udpApp  "End-to-end delay"  ETV
vector 286  csma802154net.fixhost[10].udpApp  "End-to-end delay"  ETV
vector 283  csma802154net.fixhost[7].udpApp  "End-to-end delay"  ETV
vector 288  csma802154net.fixhost[12].udpApp  "End-to-end delay"  ETV
vector 289  csma802154net.fixhost[13].udpApp  "End-to-end delay"  ETV
260	425542	70.04304406891	0.04304406891
260	425886	70.04879612168	0.04879612168
260	426565	70.059212109751	0.059212109751
260	428008	71.029076042521	0.029076042521
260	428678	71.038916081339	0.038916081339
260	429342	71.04552410487	0.04552410487
260	431226	72.096524043252	0.096524043252
260	431924	72.112876067371	0.112876067371
260	432277	72.150596082282	0.150596082282
260	433113	73.008036014759	0.008036014759
260	433460	73.01151603382	0.01151603382
260	433806	73.016276050428	0.016276050428
260	513386	670.034716121682	0.034716121682
260	514072	670.042964109755	0.042964109755
260	514408	670.045460068911	0.045460068911
260	515865	671.015956042521	0.015956042521
260	516531	671.024516081339	0.024516081339
260	517198	671.03208410487	0.03208410487
260	518737	672.017236043254	0.017236043254
260	519434	672.025124067373	0.025124067373
260	520628	672.055412082284	0.055412082284
260	521464	673.007076014759	0.007076014759
260	521811	673.01247603382	0.01247603382
260	522157	673.017556050428	0.017556050428
260	601049	1270.031916068911	0.031916068911
260	602423	1270.045524109755	0.045524109755
260	602753	1270.048652121683	0.048652121683
260	604208	1271.01755604252	0.01755604252
260	604874	1271.024836081337	0.024836081337
260	605541	1271.032404104869	0.032404104869
260	607080	1272.017556043254	0.017556043254
260	607778	1272.027684067373	0.027684067373
260	608478	1272.037492082284	0.037492082284
260	609314	1273.008676014759	0.008676014759
260	609661	1273.012476033819	0.012476033819
260	610007	1273.017876050427	0.017876050427
260	689987	1870.030236109754	0.030236109754
260	690316	1870.031772068911	0.031772068911
260	690656	1870.034004121682	0.034004121682
260	692428	1871.01755604252	0.01755604252
260	693095	1871.025796081338	0.025796081338
260	693761	1871.034004104869	0.034004104869
260	695434	1872.017876043254	0.017876043254
260	696136	1872.046244067373	0.046244067373
260	696836	1872.054132082284	0.054132082284
260	697672	1873.007716014759	0.007716014759
260	698019	1873.013116033819	0.013116033819
260	698365	1873.017876050426	0.017876050426
260	777256	2470.024556068911	0.024556068911
260	778627	2470.039444109754	0.039444109754
260	778957	2470.043604121683	0.043604121683
260	780412	2471.017556042521	0.017556042521
260	781392	2471.049724081339	0.049724081339
260	783028	2471.10962810487	0.10962810487
260	785403	2472.026756082283	0.026756082283
260	785757	2472.029892043253	0.029892043253
260	786108	2472.049124067373	0.049124067373
260	786943	2473.009316014759	0.009316014759
260	787290	2473.01343603382	0.01343603382
260	787636	2473.018836050428	0.018836050428
260	866526	3070.021036068911	0.021036068911
260	867877	3070.031196109753	0.031196109753
260	868207	3070.035284121683	0.035284121683
260	870011	3071.019156042521	0.019156042521
260	870678	3071.027716081339	0.027716081339
260	871345	3071.039764104869	0.039764104869
260	873546	3072.029324043254	0.029324043254
260	873902	3072.047844067373	0.047844067373
260	874601	3072.057332082284	0.057332082284
260	875437	3073.009956014759	0.009956014759
260	875784	3073.01375603382	0.01375603382
260	876130	3073.018196050428	0.018196050428
260	955219	3670.01943606891	0.01943606891
260	956595	3670.052564109754	0.052564109754
260	956920	3670.054484121682	0.054484121682
260	958375	3671.01691604252	0.01691604252
260	959381	3671.028924081338	0.028924081338
260	959712	3671.034644104869	0.034644104869
260	961599	3672.022356043253	0.022356043253
260	961948	3672.024876067372	0.024876067372
260	962649	3672.041332082283	0.041332082283
260	963485	3673.009316014759	0.009316014759
260	963832	3673.01471603382	0.01471603382
260	964178	3673.018516050428	0.018516050428
260	1043069	4270.021676068909	0.021676068909
260	1044443	4270.037524109751	0.037524109751
260	1044767	4270.039444121679	0.039444121679
260	1046222	4271.01883604252	0.01883604252
260	1047370	4271.032796104869	0.032796104869
260	1048020	4271.052284081336	0.052284081336
260	1050274	4272.021252043253	0.021252043253
260	1050625	4272.024196082284	0.024196082284
260	1050976	4272.030172067371	0.030172067371
260	1051811	4273.007076014759	0.007076014759
260	1052158	4273.01087603382	0.01087603382
260	1052504	4273.015316050428	0.015316050428
260	1131531	4870.021996068911	0.021996068911
260	1132639	4870.055124109755	0.055124109755
260	1133402	4870.088580121683	0.088580121683
260	1134857	4871.01851604252	0.01851604252
260	1135523	4871.027076081338	0.027076081338
260	1136675	4871.062092104868	0.062092104868
260	1138698	4872.022956067373	0.022956067373
260	1139756	4872.049980043254	0.049980043254
260	1140104	4872.052212082283	0.052212082283
260	1140940	4873.008676014759	0.008676014759
260	1141287	4873.01343603382	0.01343603382
260	1141633	4873.018516050428	0.018516050428
260	1220940	5470.024164068911	0.024164068911
260	1221624	5470.029916121683	0.029916121683
260	1222304	5470.041612109755	0.041612109755
260	1224096	5471.018196042521	0.018196042521
260	1224763	5471.026116081338	0.026116081338
260	1225429	5471.032724104869	0.032724104869
260	1227986	5472.036292043254	0.036292043254
260	1228341	5472.047484082283	0.047484082283
260	1228690	5472.051292067373	0.051292067373
260	1229525	5473.009316014759	0.009316014759
260	1229872	5473.01375603382	0.01375603382
260	1230218	5473.017876050428	0.017876050428
260	1310141	6070.030236121683	0.030236121683
260	1310497	6070.033692068911	0.033692068911
260	1310834	6070.043532109754	0.043532109754
260	1312277	6071.017876042521	0.017876042521
260	1313258	6071.051004081339	0.051004081339
260	1313925	6071.06273210487	0.06273210487
260	1315813	6072.023636043253	0.023636043253
260	1316165	6072.026724067372	0.026724067372
260	1316861	6072.032444082283	0.032444082283
260	1317697	6073.009316014759	0.009316014759
260	1318044	6073.01439603382	0.01439603382
260	1318390	6073.017876050428	0.017876050428
260	1397280	6670.02423606891	0.02423606891
260	1398803	6670.038236109754	0.038236109754
260	1399487	6670.06145212168	0.06145212168
260	1400942	6671.018836042521	0.018836042521
260	1401609	6671.025796081339	0.025796081339
260	1402275	6671.03368410487	0.03368410487
260	1403948	6672.016596043254	0.016596043254
260	1404997	6672.047204067373	0.047204067373
260	1405844	6672.073332082283	0.073332082283
260	1406680	6673.008356014759	0.008356014759
260	1407027	6673.01375603382	0.01375603382
260	1407373	6673.019156050428	0.019156050428
260	1487098	7270.02985206891	0.02985206891
260	1487844	7270.036564109755	0.036564109755
260	1488176	7270.054804121683	0.054804121683
260	1489631	7271.017876042521	0.017876042521
260	1490298	7271.026436081338	0.026436081338
260	1490965	7271.036884104869	0.036884104869
260	1492504	7272.017556043254	0.017556043254
260	1493198	7272.028004067373	0.028004067373
260	1493897	7272.035004082284	0.035004082284
260	1494733	7273.008676014758	0.008676014758
260	1495080	7273.013116033819	0.013116033819
260	1495426	7273.017236050427	0.017236050427
263	506	1.005	1
263	782	1.01	44
263	1752	1.015	45
263	2523	1.02	33
263	3577	1.025	43
263	4827	1.03	79
263	6190	1.035	54
263	7228	1.04	50
263	7943	1.045	47
263	8727	1.05	66
263	9304	1.055	37
263	9532	1.06	19
263	9608	1.065	0
263	10159	1.070037318693	46
263	10461	1.075037318693	20
263	10898	1.080037318693	50
263	11156	1.085037318693	26
263	11358	1.090037318693	15
263	11371	1.095037318693	0
263	11570	1.101962511177	15
263	11571	1.106962511177	0
263	11816	1.144419536874	23
263	11817	1.149419536874	0
263	17564	43.505	22
263	18425	43.51	0
263	19485	43.515	0
263	20095	43.52	0
263	20645	43.525	0
263	21262	43.53	0
263	22009	43.535	0
263	22709	43.54	0
263	23521	43.545	0
263	24209	43.55	0
263	24803	43.555	0
263	25193	43.56	0
263	25893	43.565	0
263	26675	43.57	0
263	27549	43.575	0
263	28018	43.58	0
263	29032	43.593342140804	0
263	29784	43.598342140804	0
263	30474	43.603342140804	0
263	31288	43.608342140804	0
263	31937	43.614740232381	0
263	32609	43.619740232381	0
263	34292	43.633199706929	0
263	34674	43.638199706929	0
263	34995	43.643199706929	0
263	35499	43.648199706929	0
263	36097	43.653468241674	0
263	36576	43.658468241674	0
263	37093	43.663468241674	0
263	37695	43.668644178858	0
263	38229	43.673644178858	0
263	38528	43.678644178858	0
263	38830	43.683644178858	0
263	39664	43.692793940777	0
263	40040	43.697793940777	0
263	40488	43.702793940777	0
263	40941	43.707793940777	0
263	41173	43.712793940777	0
263	41470	43.717793940777	0
263	41788	43.722793940777	0
263	42298	43.727793940777	0
263	42834	43.732793940777	0
263	43064	43.737793940777	0
263	43149	43.742793940777	0
263	43833	43.752518625734	0
263	44078	43.757518625734	0
263	44390	43.762518625734	0
263	44694	43.777759107143	0
263	44695	43.782759107143	0
263	44996	43.831082278555	0
263	44997	43.836082278555	0
263	45209	44.505	1
263	45563	44.51	11
263	46335	44.515	0
263	46936	44.52	0
263	47665	44.525	0
263	48050	44.53	0
263	48446	44.535	0
263	49372	44.54	0
263	49834	44.545	0
263	50158	44.55	0
263	50723	44.555402990065	0
263	50804	44.560402990065	0
263	51028	44.565402990065	0
263	51417	44.570448827628	0
263	51590	44.575448827628	0
263	57080	44.68641371518	0
263	57231	44.69141371518	0
263	57665	44.699332608108	0
263	58018	44.704332608108	0
263	58323	44.710505948276	0
263	58625	44.715505948276	0
263	59087	44.720505948276	0
263	59506	44.725505948276	0
263	59894	44.730505948276	0
263	60119	44.735505948276	0
263	60727	44.744651022914	0
263	61103	44.749651022914	0
263	61329	44.754651022914	0
263	62030	44.761588619401	0
263	62347	44.766588619401	0
263	62637	44.791558006228	0
263	62638	44.796558006228	0
263	62850	45.505	1
263	63353	45.51	23
263	64493	45.515	0
263	65196	45.52	0
263	65986	45.525	0
263	66617	45.53	0
263	66846	45.535	0
263	67690	45.541199284246	0
263	68303	45.546199284246	0
263	68914	45.551199284246	0
263	69477	45.556199284246	0
263	70082	45.561199284246	0
263	70709	45.566199284246	0
263	71102	45.571199284246	0
263	71867	45.576720188456	0
263	72360	45.581720188456	0
263	73149	45.586720188456	0
263	73688	45.591720188456	0
263	74214	45.596720188456	0
263	75477	45.609744633454	0
263	75708	45.614744633454	0
263	76524	45.620718326245	0
263	77102	45.625718326245	0
263	77793	45.633158335259	0
263	78244	45.638158335259	0
263	79858	45.659507584609	0
263	80335	45.664507584609	0
263	80781	45.669507584609	0
263	82149	45.682089308921	0
263	82657	45.687089308921	0
263	83053	45.692613137201	0
263	83432	45.697613137201	0
263	84343	45.708091440257	0
263	84645	45.713091440257	0
263	84731	45.718091440257	0
263	85192	45.723091440257	0
263	86118	45.732357113146	0
263	86587	45.737357113146	0
263	87186	45.742357113146	0
263	87876	45.749816878761	0
263	88327	45.754816878761	0
263	88412	45.759816878761	0
263	88416	45.764816878761	0
263	89062	45.772888606879	0
263	89302	45.777888606879	0
263	89662	45.782888606879	0
263	89910	45.787888606879	0
263	89913	45.792888606879	0
263	90221	45.802148405259	0
263	90543	45.807148405259	0
263	90851	45.812148405259	0
263	91244	45.817148405259	0
263	91476	45.822148405259	0
263	91787	45.827148405259	0
263	92097	45.836836758241	0
263	92415	45.841836758241	0
263	92555	46.505	1
263	92782	46.51	18
263	93274	46.515	0
263	94198	46.52	0
263	94675	46.525	0
263	95395	46.53	0
263	95714	46.535	0
263	96184	46.54	0
263	97636	46.552314366921	0
263	97790	46.557314366921	0
263	98119	46.562314366921	0
263	99021	46.571899881287	0
263	99428	46.576899881287	0
263	100011	46.582357411115	0
263	100332	46.587357411115	0
263	100862	46.592357411115	0
263	101552	46.597357411115	0
263	102028	46.602357411115	0
263	102641	46.607357411115	0
263	103077	46.612357411115	0
263	103685	46.617884512753	0
263	103914	46.622884512753	0
263	104621	46.63252126815	0
263	105177	46.63752126815	0
263	106324	46.647371904105	0
263	106776	46.652371904105	0
263	107338	46.657990395417	0
263	107799	46.662990395417	0
263	108266	46.667990395417	0
263	109057	46.672990395417	0
263	109503	46.677990395417	0
263	109959	46.682990395417	0
263	110198	46.704224355423	0
263	110428	46.709224355423	0
263	111183	46.720545291509	0
263	111256	46.725545291509	0
263	111818	46.731831284475	0
263	112131	46.736831284475	0
263	112432	46.741831284475	0
263	112442	46.746831284475	0
263	112757	46.753631074524	0
263	112758	46.758631074524	0
263	112892	47.505	1
263	112971	47.51	0
263	113735	47.516648460896	21
263	114904	47.521648460896	0
263	115644	47.526648460896	0
263	116350	47.531648460896	0
263	117149	47.536648460896	13
263	117635	47.541648460896	15
263	118686	47.546648460896	20
263	119782	47.551648460896	16
263	120758	47.556648460896	59
263	121788	47.561648460896	13
263	122815	47.566648460896	52
263	123917	47.571648460896	33
263	124895	47.576648460896	25
263	125775	47.581648460896	25
263	126468	47.586648460896	4
263	127390	47.591648460896	25
263	127946	47.596648460896	20
263	128683	47.601648460896	9
263	129305	47.606648460896	0
263	129634	47.611648460896	0
263	130313	47.616648460896	0
263	130935	47.621648460896	0
263	131409	47.626648460896	0
263	132630	47.63990376639	27
263	133052	47.64490376639	20
263	133599	47.64990376639	0
263	134108	47.65490376639	0
263	135126	47.660522774993	0
263	135787	47.665522774993	0
263	136158	47.670522774993	29
263	136709	47.675522774993	0
263	138118	47.687003723293	0
263	138793	47.692003723293	0
263	139766	47.705241020242	0
263	140153	47.710241020242	0
263	140487	47.715470076536	0
263	141030	47.720470076536	0
263	142391	47.73128279318	0
263	142869	47.73628279318	0
263	143210	47.74128279318	0
263	143766	47.74628279318	0
263	144615	47.755516813647	0
263	144927	47.760516813647	0
263	145234	47.765516813647	0
263	145713	47.771667742644	0
263	145896	47.776667742644	0
263	147140	47.786983399205	0
263	147377	47.791983399205	0
263	147450	47.796983399205	0
263	148925	47.836263881461	0
263	148926	47.841263881461	0
263	149060	48.505	1
263	149067	48.51	0
263	149813	48.518569052915	11
263	150408	48.523569052915	0
263	151228	48.528569052915	0
263	151538	48.533569052915	0
263	151698	48.538569052915	0
263	151937	48.543569052915	0
263	152176	48.548569052915	0
263	152685	48.553569052915	0
263	153539	48.558569052915	0
263	153926	48.563569052915	0
263	155223	48.577664688149	0
263	155517	48.582664688149	0
263	155970	48.591454374363	0
263	156260	48.596454374363	0
263	157074	48.615816391995	0
263	157526	48.620816391995	0
263	158161	48.627370536362	0
263	158711	48.632370536362	0
263	159316	48.641558111489	0
263	159317	48.646558111489	0
263	159802	48.659386568608	0
263	160130	48.664386568608	0
263	160435	48.669386568608	0
263	160761	48.677802364266	0
263	161082	48.682802364266	0
263	161769	48.696228552984	0
263	162012	48.701228552984	0
263	162013	48.706228552984	0
263	162458	49.505	27
263	163518	49.51	0
263	164425	49.515	0
263	165381	49.52	0
263	165919	49.525	0
263	166593	49.530594873238	0
263	167391	49.535594873238	0
263	168042	49.541515042667	0
263	168721	49.546515042667	0
263	169211	49.551515042667	0
263	170307	49.559685431466	0
263	171060	49.564685431466	0
263	171603	49.569685431466	0
263	172226	49.574685431466	0
263	172698	49.579685431466	0
263	173265	49.584685431466	0
263	173977	49.589818899569	0
263	174367	49.594818899569	0
263	176111	49.607728537385	0
263	176749	49.612728537385	0
263	177404	49.617728537385	0
263	178107	49.622728537385	0
263	178742	49.627728537385	0
263	179574	49.63764305887	0
263	179822	49.64264305887	0
263	179919	49.64764305887	0
263	180318	49.65264305887	0
263	180864	49.65764305887	0
263	182315	49.675590522601	0
263	183019	49.680590522601	0
263	183996	49.688552561864	0
263	184615	49.693552561864	0
263	185268	49.699203075353	0
263	185678	49.704203075353	0
263	187175	49.718788919662	0
263	187900	49.723788919662	0
263	188473	49.728788919662	0
263	188885	49.733788919662	0
263	189040	49.738788919662	0
263	189908	49.744062681692	0
263	190228	49.749062681692	0
263	190854	49.754062681692	0
263	192342	49.766532929183	0
263	192897	49.771532929183	0
263	193450	49.776532929183	0
263	193790	49.781532929183	0
263	194657	49.786532929183	0
263	194972	49.791532929183	0
263	195628	49.809630774236	0
263	196103	49.814630774236	0
263	196104	49.819630774236	0
263	196428	49.831038717362	0
263	196502	49.836038717362	0
263	196754	49.841342552491	0
263	196755	49.846342552491	0
263	197403	49.879662572182	0
263	197728	49.884662572182	0
263	197873	50.505	1
263	197952	50.51	0
263	199083	50.516870683173	27
263	199842	50.521870683173	0
263	200841	50.526870683173	0
263	202009	50.531870683173	0
263	202697	50.536870683173	0
263	203409	50.541870683173	0
263	204935	50.551449065134	0
263	205352	50.556449065134	0
263	206321	50.563265379969	0
263	207036	50.568265379969	0
263	207755	50.573265379969	0
263	210807	50.598440453783	0
263	211539	50.603440453783	0
263	212427	50.608440453783	0
263	212968	50.613440453783	0
263	213535	50.618440453783	0
263	214249	50.625060836498	0
263	214838	50.630060836498	0
263	215308	50.635060836498	0
263	216207	50.642827120088	0
263	216764	50.647827120088	0
263	217500	50.653599150024	0
263	218279	50.658599150024	0
263	218934	50.663599150024	0
263	219479	50.668599150024	0
263	220052	50.673599150024	0
263	220605	50.678599150024	0
263	221039	50.683599150024	0
263	221937	50.688743174673	0
263	222405	50.693743174673	0
263	223033	50.698743174673	0
263	224170	50.711357417044	0
263	224566	50.716357417044	0
263	225324	50.722741445936	0
263	225964	50.727741445936	0
263	226458	50.732741445936	0
263	226689	50.737741445936	0
263	228441	50.755033443741	0
263	229103	50.760033443741	0
263	229374	50.765033443741	0
263	229928	50.770033443741	0
263	230509	50.775033443741	0
263	230832	50.780033443741	0
263	231295	50.785033443741	0
263	232017	50.79378198988	0
263	232271	50.79878198988	0
263	232603	50.80378198988	0
263	232605	50.80878198988	0
263	232931	50.81378198988	0
263	232932	50.81878198988	0
263	233264	50.837547206409	0
263	233586	50.842547206409	0
263	234153	50.85061518306	0
263	234242	50.85561518306	0
263	234407	51.505	1
263	235146	51.51	29
263	236421	51.515	0
263	237415	51.52	0
263	238356	51.525	0
263	239289	51.53	0
263	239792	51.535	0
263	240538	51.54	0
263	241335	51.545	0
263	241928	51.55	0
263	242760	51.555	0
263	243275	51.56	0
263	244164	51.565	0
263	245103	51.571686111031	0
263	245762	51.576686111031	0
263	246529	51.581686111031	0
263	247111	51.586686111031	0
263	247762	51.591686111031	0
263	248503	51.596686111031	0
263	249376	51.601686111031	0
263	249892	51.606686111031	0
263	250960	51.614526412901	0
263	251520	51.619526412901	0
263	252744	51.628483355596	0
263	253447	51.633483355596	0
263	254532	51.641018286542	0
263	255110	51.646018286542	0
263	255848	51.651018286542	0
263	256560	51.656018286542	0
263	256962	51.661018286542	0
263	258292	51.669448162841	0
263	258949	51.674448162841	0
263	259504	51.679448162841	0
263	260164	51.684448162841	0
263	260675	51.689448162841	0
263	261331	51.694448162841	0
263	261812	51.699448162841	0
263	262299	51.704448162841	0
263	262801	51.709448162841	0
263	263362	51.716584694569	0
263	263436	51.721584694569	0
263	264113	51.727414611776	0
263	264779	51.732414611776	0
263	265339	51.737414611776	0
263	265764	51.742414611776	0
263	266359	51.747414611776	0
263	266822	51.752414611776	0
263	267235	51.757414611776	0
263	267620	51.762414611776	0
263	268302	51.774621238393	0
263	268706	51.779621238393	0
263	269513	51.786338388161	0
263	269938	51.791338388161	0
263	270263	51.796338388161	0
263	270336	51.801338388161	0
263	270674	51.807082344476	0
263	271238	51.812082344476	0
263	271239	51.817082344476	0
263	271641	51.838699989375	0
263	271894	51.843699989375	0
263	271895	51.848699989375	0
263	272382	52.505	1
263	272455	52.51	0
263	273936	52.515468498969	34
263	275222	52.520468498969	0
263	276582	52.52620318262	0
263	277323	52.53120318262	0
263	277744	52.53620318262	0
263	278602	52.54120318262	0
263	279591	52.54620318262	0
263	280683	52.551369570294	0
263	281385	52.556369570294	0
263	282181	52.561369570294	0
263	282795	52.566369570294	0
263	284823	52.576856251742	0
263	285432	52.581856251742	0
263	286434	52.588795270932	0
263	286967	52.593795270932	0
263	287569	52.598795270932	0
263	288399	52.603795270932	0
263	289203	52.608795270932	0
263	289939	52.615046396873	0
263	290594	52.620046396873	0
263	291192	52.625046396873	0
263	292126	52.630046396873	0
263	292800	52.635046396873	0
263	293674	52.640046396873	0
263	296090	52.658108828293	0
263	296979	52.663108828293	0
263	297619	52.668108828293	0
263	301625	52.699833208461	0
263	302120	52.704833208461	0
263	302898	52.710806513002	0
263	303759	52.715806513002	0
263	304881	52.726507497864	0
263	305664	52.731507497864	0
263	306172	52.736507497864	0
263	306928	52.741507497864	0
263	308268	52.74984459006	0
263	308911	52.75484459006	0
263	309954	52.763840906179	0
263	310457	52.768840906179	0
263	311075	52.773840906179	0
263	311857	52.779271583702	0
263	312274	52.784271583702	0
263	312742	52.789271583702	0
263	313698	52.794271583702	0
263	314125	52.799271583702	0
263	314537	52.804271583702	0
263	315148	52.809271583702	0
263	315915	52.823478368881	0
263	316427	52.828478368881	0
263	316948	52.833478368881	0
263	317708	52.84169886187	0
263	318047	52.84669886187	0
263	318128	52.85169886187	0
263	318927	52.857568216691	0
263	319269	52.862568216691	0
263	319872	52.867621024821	0
263	319873	52.872621024821	0
263	320542	52.885920117948	0
263	320546	52.890920117948	0
263	321225	52.901409934498	0
263	321572	52.906409934498	0
263	321573	52.911409934498	0
263	322136	53.505	35
263	323373	53.51	0
263	324318	53.515	0
263	325515	53.523589726785	0
263	326002	53.528589726785	0
263	326769	53.53396786077	0
263	327579	53.53896786077	0
263	328171	53.54396786077	0
263	329110	53.550980743174	0
263	329867	53.555980743174	0
263	330461	53.560980743174	0
263	331505	53.565980743174	0
263	332007	53.570980743174	0
263	332737	53.577274753757	0
263	333317	53.582274753757	0
263	334008	53.58843086969	0
263	334824	53.59343086969	0
263	335487	53.59843086969	0
263	335869	53.60343086969	0
263	336772	53.60843086969	0
263	337488	53.61343086969	0
263	338084	53.61843086969	0
263	339454	53.629437110776	0
263	340171	53.634437110776	0
263	340907	53.639437110776	0
263	341746	53.644437110776	0
263	342488	53.649437110776	0
263	342882	53.654437110776	0
263	343915	53.666092735071	0
263	344487	53.671092735071	0
263	345557	53.678402630162	0
263	346274	53.683402630162	0
263	347276	53.688402630162	0
263	347683	53.693402630162	0
263	348210	53.698790898071	0
263	348992	53.703790898071	0
263	349904	53.708790898071	0
263	350863	53.716761594871	0
263	351268	53.721761594871	0
263	351689	53.726761594871	0
263	352625	53.732812728725	0
263	353121	53.737812728725	0
263	354440	53.746360837746	0
263	355139	53.751360837746	0
263	355792	53.756360837746	0
263	356292	53.761360837746	0
263	356826	53.766360837746	0
263	357208	53.771360837746	0
263	358007	53.77681453194	0
263	358347	53.78181453194	0
263	359114	53.788821523142	0
263	359587	53.793821523142	0
263	360532	53.802202480822	0
263	361151	53.807202480822	0
263	361330	53.812202480822	0
263	362119	53.820895707994	0
263	362693	53.825895707994	0
263	363374	53.830895707994	0
263	363848	53.835895707994	0
263	363925	53.840895707994	0
263	365303	53.85473073376	0
263	366033	53.85973073376	0
263	366363	53.86473073376	0
263	367288	53.878171337238	0
263	367782	53.883171337238	0
263	368356	53.888171337238	0
263	368360	53.893171337238	0
263	369408	53.906907865049	0
263	369812	53.911907865049	0
263	370653	54.505	1
263	371768	54.51	34
263	372866	54.515	0
263	373868	54.52	0
263	375939	54.534583714906	0
263	376446	54.539583714906	0
263	377571	54.548346074898	0
263	378491	54.553346074898	0
263	379213	54.558346074898	0
263	380005	54.563346074898	0
263	380445	54.568346074898	0
263	381570	54.577206306266	0
263	382350	54.582206306266	0
263	383020	54.587206306266	0
263	383765	54.592206306266	0
263	384694	54.598320365931	0
263	385274	54.603320365931	0
263	385829	54.608320365931	0
263	386491	54.613320365931	0
263	387176	54.618320365931	0
263	388116	54.623320365931	0
263	388685	54.628320365931	0
263	389743	54.636249162988	0
263	390565	54.641249162988	0
263	391231	54.648174005501	0
263	392148	54.653174005501	0
263	392766	54.658174005501	0
263	393341	54.663174005501	0
263	394001	54.668174005501	0
263	394934	54.673174005501	0
263	395615	54.678174005501	0
263	396062	54.683174005501	0
263	396993	54.688174005501	0
263	397621	54.693174005501	0
263	398180	54.698174005501	0
263	398668	54.703440707111	0
263	399271	54.708440707111	0
263	399802	54.713440707111	0
263	400614	54.718440707111	0
263	401033	54.723440707111	0
263	401636	54.728440707111	0
263	402217	54.733440707111	0
263	402776	54.738440707111	0
263	403543	54.743440707111	0
263	404020	54.748440707111	0
263	404711	54.754112679575	0
263	404949	54.759112679575	0
263	406132	54.768683763413	0
263	406765	54.773683763413	0
263	408041	54.784848705953	0
263	408650	54.789848705953	0
263	409388	54.797057338742	0
263	409960	54.802057338742	0
263	410451	54.807057338742	0
263	411005	54.812057338742	0
263	411409	54.817057338742	0
263	412583	54.828755958793	0
263	412995	54.833755958793	0
263	413355	54.838755958793	0
263	413934	54.843755958793	0
263	414509	54.848755958793	0
263	414701	54.853755958793	0
263	415365	54.866572250552	0
263	415778	54.871572250552	0
263	416848	54.884730749532	0
263	416850	54.889730749532	0
263	417208	54.89510972371	0
263	417653	54.90010972371	0
263	418790	54.917442343881	0
263	419063	54.922442343881	0
263	419823	54.932576299578	0
263	420245	54.937576299578	0
263	420252	54.942576299578	0
263	420598	54.949509776709	0
263	420599	54.954509776709	0
263	420941	54.960594263352	0
263	420942	54.965594263352	0
263	423573	70.00501	0
263	423574	70.01001	0
263	423925	70.024876029371	0
263	424299	70.029876029371	0
263	424656	70.034876029371	0
263	425080	70.039876029371	0
263	425709	70.044876029371	0
263	426051	70.049876029371	0
263	426303	70.054876029371	0
263	426715	70.059876029371	0
263	426719	70.064876029371	0
263	427082	71.00501	0
263	427165	71.01001	0
263	427742	71.02487601646	0
263	428170	71.02987601646	0
263	428413	71.03487601646	0
263	428909	71.03987601646	0
263	429245	71.04487601646	0
263	429493	71.04987601646	0
263	429494	71.05487601646	0
263	429980	72.00501	0
263	429981	72.01001	0
263	430348	72.087606025292	0
263	430701	72.092606025292	0
263	431400	72.097606025292	0
263	431745	72.102606025292	0
263	431746	72.107606025292	0
263	432095	72.117876067371	0
263	432096	72.122876067371	0
263	432449	72.155596082282	0
263	432450	72.160596082282	0
263	432847	73.00501	0
263	433292	73.01001	0
263	433641	73.01501	0
263	433980	73.02001	0
263	433981	73.02501	0
263	511335	670.00501	0
263	511778	670.01001	0
263	511851	670.01501	0
263	512225	670.021006042306	0
263	512753	670.026006042306	0
263	513205	670.031006042306	0
263	513554	670.036006042306	0
263	513903	670.041006042306	0
263	514572	670.046006042306	0
263	514576	670.051006042306	0
263	515024	671.00501	0
263	515344	671.01001	0
263	515766	671.01501	0
263	516099	671.02001	0
263	516602	671.02501	0
263	517032	671.03001	0
263	517349	671.03501	0
263	517350	671.04001	0
263	517735	672.00501	0
263	518200	672.01001	0
263	518556	672.01501	0
263	518980	672.02001	0
263	519328	672.02501	0
263	519754	672.03001	0
263	519755	672.03501	0
263	520800	672.056932068985	0
263	520801	672.061932068985	0
263	521296	673.00501	0
263	521643	673.01001	0
263	521989	673.01501	0
263	522331	673.02001	0
263	522332	673.02501	0
263	599781	1270.00501	0
263	600129	1270.01001	0
263	600130	1270.01501	0
263	600576	1270.026766042306	0
263	600934	1270.031766042306	0
263	601562	1270.036766042306	0
263	601911	1270.041766042306	0
263	602579	1270.046766042306	0
263	602918	1270.051766042306	0
263	602919	1270.056766042306	0
263	603367	1271.00501	0
263	603687	1271.01001	0
263	604040	1271.01501	0
263	604376	1271.02001	0
263	604875	1271.02501	0
263	605375	1271.03001	0
263	605692	1271.03501	0
263	605693	1271.04001	0
263	606182	1272.00501	0
263	606543	1272.01001	0
263	606896	1272.01501	0
263	607254	1272.02001	0
263	607596	1272.02501	0
263	607949	1272.03001	0
263	608300	1272.03501	0
263	608650	1272.04001	0
263	608651	1272.04501	0
263	609143	1273.00501	0
263	609493	1273.01001	0
263	609836	1273.01501	0
263	610181	1273.02001	0
263	610182	1273.02501	0
263	687599	1870.00501	0