file 238376 1353024715                                          
version 2
run AODVScenario_1f-49-20121116-00:11:24-2040
attr configname AODVScenario_1f
attr datetime 20121116-00:11:24
attr experiment AODVScenario_1f
attr inifile AODV.ini
attr iterationvars $numNodes=99
attr iterationvars2 "$numNodes=99, $repetition=0"
attr measurement $numNodes=99
attr network csma802154net
attr numNodes 99
attr processid 2040
attr repetition 0
attr replication #0
attr resultdir results
attr runnumber 49
attr seedset 49

vector 407  csma802154net.dataCentricNetworkMan  RREQPacketFrequency  ETV
vector 408  csma802154net.dataCentricNetworkMan  RERRPacketFrequency  ETV
vector 409  csma802154net.dataCentricNetworkMan  DiscoveryPacketFrequency  ETV
vector 410  csma802154net.dataCentricNetworkMan  RegisterPacketFrequency  ETV
vector 411  csma802154net.dataCentricNetworkMan  RReplyPacketFrequency  ETV
vector 412  csma802154net.dataCentricNetworkMan  AODVDataPacketFrequency  ETV
vector 419  csma802154net.dataCentricNetworkMan  pendingRegistrationVector  ETV
vector 418  csma802154net.dataCentricNetworkMan  pendingRREQVector  ETV
vector 416  csma802154net.dataCentricNetworkMan  PendingDataPacketsVector  ETV
vector 423  csma802154net.fixhost[3].udpApp  "End-to-end delay"  ETV
vector 404  csma802154net.dataCentricNetworkMan  dataPacketE2EDelay  ETV
vector 424  csma802154net.fixhost[4].udpApp  "End-to-end delay"  ETV
vector 427  csma802154net.fixhost[7].udpApp  "End-to-end delay"  ETV
vector 438  csma802154net.fixhost[18].udpApp  "End-to-end delay"  ETV
vector 433  csma802154net.fixhost[13].udpApp  "End-to-end delay"  ETV
vector 434  csma802154net.fixhost[14].udpApp  "End-to-end delay"  ETV
vector 428  csma802154net.fixhost[8].udpApp  "End-to-end delay"  ETV
vector 430  csma802154net.fixhost[10].udpApp  "End-to-end delay"  ETV
vector 431  csma802154net.fixhost[11].udpApp  "End-to-end delay"  ETV
404	1872 5339 1005733 2611040 70.028516023316 7273.054772106023 117 0.007396023317 0.071732106024 2.662378467155 0.081956463202114
407	7211 35690 785 2611299 1.005 7273.064772106023 1238 0 131 2170 147998
408	42901 35651 785 2611299 1.005 7273.064772106023 1238 0 0 0 0
409	78552 35651 785 2611299 1.005 7273.064772106023 1238 0 0 0 0
410	114203 35651 785 2611299 1.005 7273.064772106023 1238 0 1 12 12
411	149854 35664 785 2611299 1.005 7273.064772106023 1238 0 107 1611 73377
412	185518 35667 785 2611299 1.005 7273.064772106023 1238 0 91 1199 60411
416	221185 10392 1004813 2611040 70 7273.054772106023 338 0 3 325 533
418	231577 963 37533 901132 43.50001 54.543016603299 35 0 1 16 16
419	232540 497 37528 1000276 43.5 55.019862688589 21 0 4 53 167
423	233037 595 1005733 2600660 70.028516023316 7270.009956023315 13 0.007396023317 0.028516023316 0.139348303117 0.0018524035062475
424	233632 595 1006263 2601191 70.032956035546 7270.014076035545 13 0.011516035547 0.032956035546 0.198028462107 0.00338551444647
427	234227 589 1008639 2603023 71.031036035381 7271.012476035381 13 0.010876035381 0.03928403538 0.25398845995 0.0062538685485823
428	234816 595 1013784 2608718 73.016276050908 7273.018196050907 13 0.016276050908 0.051652050907 0.3161486618 0.0091701752447498
430	235411 591 1016127 2610287 73.053780078422 7273.028004078421 13 0.02295607842 0.053780078422 0.420837019478 0.015112220325197
431	236002 595 1016629 2611040 73.057332106024 7273.054772106023 13 0.026756106023 0.071732106024 0.585397378302 0.02849318597141
433	236597 589 1010920 2605850 72.01183603863 7272.014076038631 13 0.010876038631 0.016316038631 0.1637885022 0.0020907341425362
434	237186 595 1011445 2606375 72.016916068271 7272.019156068272 13 0.014676068272 0.020436068271 0.219268887531 0.0037272179876174
438	237781 595 1009158 2604088 71.043476060975 7271.020364060975 13 0.015316060974 0.043724060974 0.36557279267 0.011871143029304
