file 229738 1353324338                                          
version 2
run AODVScenario_1f-51-20121119-11:25:05-176
attr configname AODVScenario_1f
attr datetime 20121119-11:25:05
attr experiment AODVScenario_1f
attr inifile AODV.ini
attr iterationvars $numNodes=101
attr iterationvars2 "$numNodes=101, $repetition=0"
attr measurement $numNodes=101
attr network csma802154net
attr numNodes 101
attr processid 176
attr repetition 0
attr replication #0
attr resultdir results
attr runnumber 51
attr seedset 51

vector 415  csma802154net.dataCentricNetworkMan  RREQPacketFrequency  ETV
vector 416  csma802154net.dataCentricNetworkMan  RERRPacketFrequency  ETV
vector 417  csma802154net.dataCentricNetworkMan  DiscoveryPacketFrequency  ETV
vector 418  csma802154net.dataCentricNetworkMan  RegisterPacketFrequency  ETV
vector 419  csma802154net.dataCentricNetworkMan  RReplyPacketFrequency  ETV
vector 420  csma802154net.dataCentricNetworkMan  AODVDataPacketFrequency  ETV
vector 427  csma802154net.dataCentricNetworkMan  pendingRegistrationVector  ETV
vector 426  csma802154net.dataCentricNetworkMan  pendingRREQVector  ETV
vector 424  csma802154net.dataCentricNetworkMan  PendingDataPacketsVector  ETV
vector 432  csma802154net.fixhost[4].udpApp  "End-to-end delay"  ETV
vector 412  csma802154net.dataCentricNetworkMan  dataPacketE2EDelay  ETV
vector 434  csma802154net.fixhost[6].udpApp  "End-to-end delay"  ETV
vector 448  csma802154net.fixhost[20].udpApp  "End-to-end delay"  ETV
vector 438  csma802154net.fixhost[10].udpApp  "End-to-end delay"  ETV
vector 440  csma802154net.fixhost[12].udpApp  "End-to-end delay"  ETV
vector 443  csma802154net.fixhost[15].udpApp  "End-to-end delay"  ETV
vector 435  csma802154net.fixhost[7].udpApp  "End-to-end delay"  ETV
vector 441  csma802154net.fixhost[13].udpApp  "End-to-end delay"  ETV
412	1804 4760 1015783 2643418 70.040876090106 7273.020396079395 104 0.006436013305 0.052756049144 2.047293782973 0.049207398494985
415	6564 34556 801 2643677 1.005 7273.03001 1214 0 134 2225 159655
416	41120 34516 801 2643677 1.005 7273.03001 1214 0 0 0 0
417	75636 34516 801 2643677 1.005 7273.03001 1214 0 0 0 0
418	110152 34516 801 2643677 1.005 7273.03001 1214 0 1 12 12
419	144668 34532 801 2643677 1.005 7273.03001 1214 0 112 1739 82367
420	179200 34535 801 2643677 1.005 7273.03001 1214 0 104 1240 60400
424	213735 9548 1013267 2643418 70 7273.020396079395 312 0 3 286 468
426	223283 1229 38683 928750 43.50001 54.537370902709 44 0 1 15 15
427	224512 466 38678 969596 43.5 54.71328298004 20 0 5 56 190
432	224978 595 1015783 2634414 70.040876090106 7270.017236061064 13 0.014676061064 0.040876090106 0.276308968081 0.0064533570441219
434	225573 595 1016321 2635483 70.046596120815 7270.045924090615 13 0.023844090614 0.048164090614 0.45704535919 0.017283209023057
435	226168 595 1023727 2642394 73.019156049138 7273.014036049138 13 0.014036049138 0.026372049137 0.262924638788 0.0054485415028813
438	226763 595 1019945 2639107 72.008996013306 7272.008676013306 13 0.006436013305 0.009956013306 0.110868172977 0.00095629499840865
440	227358 595 1020447 2639609 72.013116027002 7272.012796027002 13 0.009916027001 0.014396027002 0.162508351024 0.0020487565040454
441	227953 595 1024235 2643418 73.024236079396 7273.020396079395 13 0.018476079396 0.027684079395 0.29718103214 0.0068779936375101
443	228548 595 1020946 2640108 72.017556047839 7272.017236047839 13 0.013716047838 0.018516047839 0.219908621905 0.0037416935683268
448	229143 595 1018690 2637852 71.052756049144 7271.017556049142 13 0.015316049144 0.052756049144 0.260548638868 0.0063975522166341
