version 2
run AODVScenario_1f-73-20121116-00:28:16-3808
attr configname AODVScenario_1f
attr datetime 20121116-00:28:16
attr experiment AODVScenario_1f
attr inifile AODV.ini
attr iterationvars $numNodes=123
attr iterationvars2 "$numNodes=123, $repetition=0"
attr measurement $numNodes=123
attr network csma802154net
attr numNodes 123
attr processid 3808
attr repetition 0
attr replication #0
attr resultdir results
attr runnumber 73
attr seedset 73

vector 503  csma802154net.dataCentricNetworkMan  RREQPacketFrequency  ETV
vector 504  csma802154net.dataCentricNetworkMan  RERRPacketFrequency  ETV
vector 505  csma802154net.dataCentricNetworkMan  DiscoveryPacketFrequency  ETV
vector 506  csma802154net.dataCentricNetworkMan  RegisterPacketFrequency  ETV
vector 507  csma802154net.dataCentricNetworkMan  RReplyPacketFrequency  ETV
vector 508  csma802154net.dataCentricNetworkMan  AODVDataPacketFrequency  ETV
vector 515  csma802154net.dataCentricNetworkMan  pendingRegistrationVector  ETV
vector 514  csma802154net.dataCentricNetworkMan  pendingRREQVector  ETV
vector 512  csma802154net.dataCentricNetworkMan  PendingDataPacketsVector  ETV
vector 526  csma802154net.fixhost[10].udpApp  "End-to-end delay"  ETV
vector 500  csma802154net.dataCentricNetworkMan  dataPacketE2EDelay  ETV
vector 531  csma802154net.fixhost[15].udpApp  "End-to-end delay"  ETV
vector 534  csma802154net.fixhost[18].udpApp  "End-to-end delay"  ETV
vector 524  csma802154net.fixhost[8].udpApp  "End-to-end delay"  ETV
vector 518  csma802154net.fixhost[2].udpApp  "End-to-end delay"  ETV
vector 529  csma802154net.fixhost[13].udpApp  "End-to-end delay"  ETV
vector 535  csma802154net.fixhost[19].udpApp  "End-to-end delay"  ETV
vector 521  csma802154net.fixhost[5].udpApp  "End-to-end delay"  ETV
vector 530  csma802154net.fixhost[14].udpApp  "End-to-end delay"  ETV
vector 525  csma802154net.fixhost[9].udpApp  "End-to-end delay"  ETV
500	1616615	70.07935603332	0.07935603332
500	1617244	70.084436056022	0.084436056022
500	1617914	70.088236072634	0.088236072634
500	1620107	71.013756028239	0.013756028239
500	1621664	72.008996028925	0.008996028925
500	1623631	72.07803607065	0.07803607065
500	1624268	72.088876101557	0.088876101557
500	1627370	73.016596052769	0.016596052769
500	1628656	73.044644062328	0.044644062328
500	1629321	73.092964065722	0.092964065722
500	1781782	670.012476033321	0.012476033321
500	1782411	670.017236056023	0.017236056023
500	1783082	670.021036072635	0.021036072635
500	1785275	671.01151602824	0.01151602824
500	1786832	672.008676028926	0.008676028926
500	1788804	672.019084070651	0.019084070651
500	1789437	672.021356101557	0.021356101557
500	1792265	673.018516052769	0.018516052769
500	1793548	673.023916062328	0.023916062328
500	1794209	673.026404065722	0.026404065722
500	1946670	1270.012796033321	0.012796033321
500	1947299	1270.017236056023	0.017236056023
500	1947970	1270.021356072635	0.021356072635
500	1950163	1271.01151602824	0.01151602824
500	1951720	1272.007716028926	0.007716028926
500	1953026	1272.014996070651	0.014996070651
500	1954325	1272.022564101558	0.022564101558
500	1957828	1273.022636062328	0.022636062328
500	1958481	1273.024844052769	0.024844052769
500	1959107	1273.028252065722	0.028252065722
500	2111691	1870.01119603332	0.01119603332
500	2112320	1870.015956056022	0.015956056022
500	2112991	1870.020076072633	0.020076072633
500	2115184	1871.01375602824	0.01375602824
500	2116741	1872.009636028926	0.009636028926
500	2118048	1872.017876070651	0.017876070651
500	2119347	1872.026724101557	0.026724101557
500	2122963	1873.023564052768	0.023564052768
500	2123737	1873.030956065721	0.030956065721
500	2124377	1873.048164062327	0.048164062327
500	2276863	2470.012796033321	0.012796033321
500	2277492	2470.017236056023	0.017236056023
500	2278163	2470.020716072635	0.020716072635
500	2280356	2471.01151602824	0.01151602824
500	2281913	2472.008036028926	0.008036028926
500	2283894	2472.019116101558	0.019116101558
500	2284519	2472.022852070651	0.022852070651
500	2288015	2473.020044052768	0.020044052768
500	2288640	2473.022636065722	0.022636065722
500	2290213	2473.050260062328	0.050260062328
500	2442699	3070.012476033321	0.012476033321
500	2443328	3070.016916056023	0.016916056023
500	2443999	3070.020396072635	0.020396072635
500	2446192	3071.01247602824	0.01247602824
500	2447749	3072.008036028926	0.008036028926
500	2449717	3072.019156070651	0.019156070651
500	2450354	3072.023524101557	0.023524101557
500	2453841	3073.016916052769	0.016916052769
500	2454464	3073.019116065722	0.019116065722
500	2455102	3073.022884062328	0.022884062328
500	2607711	3670.01343603332	0.01343603332
500	2608340	3670.017876056021	0.017876056021
500	2609011	3670.023276072633	0.023276072633
500	2611204	3671.01471602824	0.01471602824
500	2612761	3672.009636028926	0.009636028926
500	2614743	3672.021356101558	0.021356101558
500	2615369	3672.03053207065	0.03053207065
500	2618201	3673.016276052769	0.016276052769
500	2619488	3673.025124065722	0.025124065722
500	2620125	3673.028892062328	0.028892062328
500	2772612	4270.01791603332	0.01791603332
500	2773241	4270.023316056022	0.023316056022
500	2773911	4270.027116072634	0.027116072634
500	2776104	4271.013756028238	0.013756028238
500	2777661	4272.007396028926	0.007396028926
500	2779630	4272.020436070651	0.020436070651
500	2780262	4272.022956101558	0.022956101558
500	2783091	4273.016916052768	0.016916052768
500	2784377	4273.02864406572	0.02864406572
500	2785012	4273.031204062326	0.031204062326
500	2937498	4870.014076033321	0.014076033321
500	2938127	4870.017876056023	0.017876056023
500	2938798	4870.023276072635	0.023276072635
500	2940991	4871.01247602824	0.01247602824
500	2942548	4872.009316028926	0.009316028926
500	2944522	4872.021324070651	0.021324070651
500	2945158	4872.027684101558	0.027684101558
500	2948663	4873.020076065721	0.020076065721
500	2949301	4873.025124062327	0.025124062327
500	2949954	4873.031492052768	0.031492052768
500	3102525	5470.012476033321	0.012476033321
500	3103154	5470.016916056023	0.016916056023
500	3103825	5470.021676072635	0.021676072635
500	3106018	5471.013756028239	0.013756028239
500	3107575	5472.007076028926	0.007076028926
500	3108881	5472.014356070651	0.014356070651
500	3110180	5472.023524101558	0.023524101558
500	3113680	5473.023916062327	0.023916062327
500	3114609	5473.028364052769	0.028364052769
500	3115240	5473.052572065722	0.052572065722
500	3267701	6070.011836033321	0.011836033321
500	3268330	6070.015636056023	0.015636056023
500	3269001	6070.020076072635	0.020076072635
500	3271194	6071.01311602824	0.01311602824
500	3272751	6072.008676028926	0.008676028926
500	3274061	6072.016276070651	0.016276070651
500	3275356	6072.023204101558	0.023204101558
500	3278458	6073.016276052769	0.016276052769
500	3279749	6073.045284065722	0.045284065722
500	3280387	6073.050012062327	0.050012062327
500	3432873	6670.01407603332	0.01407603332
500	3433502	6670.018516056021	0.018516056021
500	3434173	6670.022316072633	0.022316072633
500	3436366	6671.01343602824	0.01343602824
500	3437923	6672.008676028926	0.008676028926
500	3439508	6672.018196070651	0.018196070651
500	3440812	6672.048804101557	0.048804101557
500	3443640	6673.015956052769	0.015956052769
500	3444921	6673.022636065722	0.022636065722
500	3445559	6673.028004062328	0.028004062328
500	3598169	7270.01631603332	0.01631603332
500	3598797	7270.020116056022	0.020116056022
500	3599468	7270.024876072634	0.024876072634
500	3601661	7271.01119602824	0.01119602824
500	3603218	7272.009956028926	0.009956028926
500	3605192	7272.022284070651	0.022284070651
500	3605828	7272.027364101558	0.027364101558
500	3608660	7273.016916052768	0.016916052768
500	3609942	7273.023524065721	0.023524065721
500	3610577	7273.026084062327	0.026084062327
503	989	1.005	1
503	1894	1.01	116
503	4664	1.015	170
503	9138	1.02	93
503	13344	1.025	53
503	16889	1.03	46
503	19151	1.035	133
503	20690	1.04	111
503	23333	1.045	108
503	25009	1.05	98
503	26649	1.055	115
503	28437	1.06	125
503	29612	1.065	49
503	31025	1.07	129
503	32132	1.075	87
503	34173	1.08	60
503	35566	1.085	94
503	36631	1.09	58
503	37718	1.095	86
503	38617	1.1	80
503	39573	1.105	67
503	40255	1.11	60
503	40563	1.115	38
503	40696	1.12	0
503	41674	1.125328904243	122
503	42718	1.130328904243	80
503	43436	1.135328904243	70
503	44245	1.140328904243	58
503	44249	1.145328904243	0
503	45215	1.153611025458	94
503	45715	1.158611025458	50
503	45848	1.163611025458	0
503	46276	1.169639906699	62
503	46277	1.174639906699	0
503	46792	1.195746336849	53
503	46793	1.200746336849	0
503	57489	43.505	1
503	57628	43.51	0
503	60123	43.515872353772	36
503	61432	43.520872353772	0
503	63304	43.526556833375	0
503	64969	43.531556833375	0
503	65718	43.536556833375	0
503	67009	43.541556833375	0
503	67992	43.546556833375	0
503	70214	43.556158401263	0
503	71240	43.561158401263	0
503	72909	43.566206472625	0
503	74194	43.571206472625	0
503	75858	43.580002864611	0
503	77056	43.585002864611	0
503	78463	43.590002864611	0
503	79577	43.595002864611	0
503	81147	43.601080836126	0
503	82037	43.606080836126	0
503	83160	43.611080836126	0
503	83867	43.616080836126	0
503	85583	43.622313576147	0
503	86728	43.627313576147	0
503	87921	43.633984858745	0
503	88929	43.638984858745	0
503	91219	43.648471447415	0
503	92554	43.653471447415	0
503	95799	43.670521352702	0
503	96956	43.675521352702	0
503	97945	43.680521352702	0
503	99080	43.685521352702	0
503	100753	43.691026889198	0
503	101879	43.696026889198	0
503	102634	43.701026889198	0
503	103969	43.706026889198	0
503	105434	43.711026889198	0
503	106702	43.716026889198	0
503	107697	43.721026889198	0
503	109666	43.731412249463	0
503	110474	43.736412249463	0
503	111745	43.74273105883	0
503	113011	43.74773105883	0
503	113863	43.75273105883	0
503	115436	43.760840959734	0
503	116288	43.765840959734	0
503	117722	43.770840959734	0
503	118599	43.775840959734	0
503	119906	43.780840959734	0
503	120655	43.785840959734	0
503	121510	43.790840959734	0
503	122066	43.795840959734	0
503	123140	43.801748911588	0
503	124020	43.806748911588	0
503	125178	43.814478500647	0
503	126260	43.819478500647	0
503	127141	43.824478500647	0
503	127413	43.829478500647	0
503	128033	43.834478500647	0
503	128883	43.839478500647	0
503	129321	43.844478500647	0
503	130611	43.858677657052	0
503	131166	43.863677657052	0
503	132380	43.873666736998	0
503	132516	43.878666736998	0
503	132986	43.883758262804	0
503	134170	43.888758262804	0
503	134587	43.893758262804	0
503	135921	43.927485351632	0
503	135922	43.932485351632	0
503	137464	43.947718592851	0
503	137624	43.952718592851	0
503	138791	43.973201236429	0
503	139411	43.978201236429	0
503	139412	43.983201236429	0
503	140272	44.00344546705	0
503	140273	44.00844546705	0
503	140879	44.021097262619	0
503	140880	44.026097262619	0
503	141595	44.055841281884	0
503	142070	44.060841281884	0
503	142215	44.505	1
503	143859	44.51	74
503	147429	44.515	0
503	149850	44.52	0
503	151674	44.525	0
503	153979	44.53	0
503	155497	44.535	0
503	157679	44.54	0
503	159347	44.545	0
503	164403	44.560714128462	0
503	165815	44.565714128462	0
503	167950	44.570714128462	0
503	171254	44.580791648485	0
503	173495	44.585791648485	0
503	174678	44.590791648485	0
503	181151	44.609341283896	0
503	182637	44.614341283896	0
503	184742	44.619341283896	0
503	186574	44.624341283896	0
503	188146	44.629341283896	0
503	190208	44.636469986057	0
503	192263	44.641469986057	0
503	194400	44.646469986057	0
503	196473	44.651469986057	0
503	197817	44.656469986057	0
503	202248	44.671722068535	0
503	203754	44.676722068535	0
503	206700	44.684925434532	0
503	208103	44.689925434532	0
503	209682	44.694925434532	0
503	212472	44.701980009341	0
503	214090	44.706980009341	0
503	215532	44.711980009341	0
503	218695	44.721668841013	0
503	220611	44.726668841013	0
503	222568	44.731668841013	0
503	225839	44.740014271834	0
503	227781	44.745014271834	0
503	229510	44.750014271834	0
503	231509	44.756118377619	0
503	233267	44.761118377619	0
503	234858	44.766118377619	0
503	236352	44.771118377619	0
503	238624	44.776118377619	0
503	241553	44.78305817011	0
503	243247	44.78805817011	0
503	245381	44.79305817011	0
503	248111	44.799640795432	0
503	250120	44.804640795432	0
503	251735	44.809640795432	0
503	253641	44.814640795432	0
503	255071	44.819640795432	0
503	257485	44.824899029846	0
503	258939	44.829899029846	0
503	262029	44.838865695158	0
503	263532	44.843865695158	0
503	265392	44.848865695158	0
503	269533	44.860701209913	0
503	271301	44.865701209913	0
503	273154	44.870701209913	0
503	275559	44.877484271834	0
503	277305	44.882484271834	0
503	281653	44.893682560883	0
503	283158	44.898682560883	0
503	284717	44.903682560883	0
503	286401	44.908682560883	0
503	288158	44.913682560883	0
503	289867	44.918682560883	0
503	290803	44.923682560883	0
503	294168	44.934605897895	0
503	295275	44.939605897895	0
503	297701	44.949699417557	0
503	299491	44.954699417557	0
503	300510	44.959699417557	0
503	302569	44.968375998189	0
503	303745	44.973375998189	0
503	304748	44.978375998189	0
503	306439	44.983375998189	0
503	307644	44.988375998189	0
503	309311	44.993375998189	0
503	310667	44.998375998189	0
503	312093	45.003375998189	0
503	313808	45.008375998189	0
503	317222	45.022310276404	0
503	318831	45.027310276404	0
503	319931	45.032310276404	0
503	320974	45.037310276404	0
503	322606	45.042310276404	0
503	323344	45.047310276404	0
503	325621	45.059108887305	0
503	326650	45.064108887305	0
503	327898	45.069108887305	0
503	328637	45.074108887305	0
503	330156	45.081653947736	0
503	330602	45.086653947736	0
503	332006	45.093904393577	0
503	332740	45.098904393577	0
503	335725	45.116146427599	0
503	336498	45.121146427599	0
503	337423	45.126146427599	0
503	337620	45.131146427599	0
503	339112	45.141767472878	0
503	339564	45.146767472878	0
503	340949	45.165244767013	0
503	341084	45.170244767013	0
503	341558	45.175244767013	0
503	341703	45.505	1
503	344787	45.51	62
503	346857	45.515	0
503	348743	45.52	0
503	351903	45.530450589428	0
503	353400	45.535450589428	0
503	358457	45.550194816374	0
503	359893	45.555194816374	0
503	361350	45.560255819979	0
503	363079	45.565255819979	0
503	365856	45.572865848647	0
503	367326	45.577865848647	0
503	369004	45.583889035778	0
503	370370	45.588889035778	0
503	374285	45.599893753381	0
503	375868	45.604893753381	0
503	377365	45.610398685304	0
503	378515	45.615398685304	0
503	388513	45.645657957111	0
503	390160	45.650657957111	0
503	393203	45.661022822896	0
503	394902	45.666022822896	0
503	399278	45.679399602684	0
503	401216	45.684399602684	0
503	404363	45.695317300709	0
503	405839	45.700317300709	0
503	407691	45.705317300709	0
503	409347	45.710317300709	0
503	410830	45.715317300709	0
503	413081	45.720317300709	0
503	415217	45.725487243038	0
503	417165	45.730487243038	0
503	418611	45.735487243038	0
503	420793	45.740487243038	0
503	421947	45.745487243038	0
503	423297	45.750487243038	0
503	425676	45.755487243038	0
503	426999	45.760487243038	0
503	428364	45.765487243038	0
503	430149	45.770487243038	0
503	431879	45.775487243038	0
503	437749	45.793957202527	0
503	439020	45.798957202527	0
503	440414	45.803957202527	0
503	443026	45.811235822933	0
503	444812	45.816235822933	0
503	446122	45.821235822933	0
503	448065	45.827699632262	0
503	449296	45.832699632262	0
503	450761	45.837699632262	0
503	453994	45.84917964657	0
503	455580	45.85417964657	0
503	457239	45.861141787679	0
503	459106	45.866141787679	0
503	460554	45.871141787679	0
503	462456	45.878106424655	0
503	463896	45.883106424655	0
503	464655	45.888106424655	0
503	466015	45.893106424655	0
503	467756	45.898106424655	0
503	471087	45.908010551099	0
503	472294	45.913010551099	0
503	473158	45.918010551099	0
503	474386	45.923010551099	0
503	476566	45.929343519869	0
503	477869	45.934343519869	0
503	479161	45.943000229225	0
503	480358	45.948000229225	0
503	481511	45.954730993772	0
503	482617	45.959730993772	0
503	483979	45.968171272739	0
503	485424	45.973171272739	0
503	486475	45.978171272739	0
503	488099	45.985074783177	0
503	488855	45.990074783177	0
503	489517	45.995074783177	0
503	490783	46.000074783177	0
503	491521	46.005416767647	0
503	492136	46.010416767647	0
503	493193	46.015416767647	0
503	494028	46.020416767647	0
503	495151	46.025416767647	0
503	496545	46.030416767647	0
503	497932	46.040532901278	0
503	499028	46.045532901278	0
503	499915	46.050532901278	0
503	500938	46.055532901278	0
503	501402	46.060532901278	0
503	502645	46.076647929939	0
503	503249	46.081647929939	0
503	503250	46.086647929939	0
503	504152	46.101652422077	0
503	504159	46.106652422077	0
503	505098	46.113437628361	0
503	505413	46.118437628361	0
503	506055	46.132556443082	0
503	506056	46.137556443082	0
503	507244	46.168396613053	0
503	507245	46.173396613053	0
503	507252	46.505	1
503	507265	46.51	0
503	509938	46.516955808581	57
503	512145	46.521955808581	0
503	516072	46.529433233544	0
503	517431	46.534433233544	0
503	518794	46.539433233544	0
503	523586	46.555008995821	0
503	524740	46.560008995821	0
503	526080	46.565008995821	0
503	527821	46.570008995821	0
503	529183	46.575008995821	0
503	530695	46.580008995821	0
503	532810	46.588120734482	0
503	533736	46.593120734482	0
503	535411	46.598120734482	0
503	536504	46.603120734482	0
503	538433	46.610735658538	0
503	539546	46.615735658538	0
503	540614	46.620735658538	0
503	541999	46.625735658538	0
503	545697	46.638979446664	0
503	546789	46.643979446664	0
503	548656	46.649426127868	0
503	550295	46.654426127868	0
503	551814	46.659426127868	0
503	552825	46.664426127868	0
503	555059	46.673492910923	0
503	556270	46.678492910923	0
503	559069	46.690099626832	0
503	560267	46.695099626832	0
503	563474	46.708246120335	0
503	564919	46.713246120335	0
503	566433	46.718246120335	0
503	567611	46.723951685744	0
503	568843	46.728951685744	0
503	570213	46.733951685744	0
503	571708	46.738951685744	0
503	572991	46.743951685744	0
503	574824	46.751970138242	0
503	576066	46.756970138242	0
503	577481	46.761970138242	0
503	579091	46.766970138242	0
503	580298	46.771970138242	0
503	581478	46.776970138242	0
503	583079	46.781970138242	0
503	584341	46.786970138242	0
503	585642	46.791970138242	0
503	588374	46.802504115199	0
503	589870	46.807504115199	0
503	591014	46.812504115199	0
503	592484	46.817504115199	0
503	593755	46.822504115199	0
503	594956	46.827504115199	0
503	595865	46.832504115199	0
503	597297	46.838075153806	0
503	598748	46.843075153806	0
503	600175	46.848075153806	0
503	603151	46.860750667945	0
503	604617	46.865750667945	0
503	605933	46.870750667945	0
503	606826	46.875750667945	0
503	608631	46.881579844013	0
503	610098	46.886579844013	0
503	611673	46.891579844013	0
503	615988	46.913028413433	0
503	617432	46.918028413433	0
503	619629	46.926365882995	0
503	620609	46.931365882995	0
503	621484	46.936365882995	0
503	622395	46.941365882995	0
503	623700	46.946365882995	0
503	626097	46.956008790745	0
503	627123	46.961008790745	0
503	628617	46.966008790745	0
503	629926	46.971008790745	0
503	633665	46.989110766042	0
503	634108	46.994110766042	0
503	634868	46.999481131189	0
503	635566	47.004481131189	0
503	636364	47.009481131189	0
503	637598	47.014481131189	0
503	638195	47.019481131189	0
503	639303	47.024789115373	0
503	639750	47.029789115373	0
503	641140	47.045547159084	0
503	641888	47.050547159084	0
503	642673	47.055547159084	0
503	642989	47.060547159084	0
503	643882	47.087857718202	0
503	643883	47.092857718202	0
503	644488	47.101903896958	0
503	644490	47.106903896958	0
503	645121	47.12469567639	0
503	645122	47.12969567639	0
503	645768	47.164929009358	0
503	645769	47.169929009358	0
503	645914	47.505	1
503	647578	47.51	63
503	652004	47.515	0
503	653980	47.52	0
503	655717	47.525	0
503	659427	47.536852187201	0
503	661358	47.541852187201	0
503	663679	47.548657133852	0
503	665649	47.553657133852	0
503	667651	47.558657133852	0
503	673299	47.579509711852	0
503	674907	47.584509711852	0
503	677820	47.59330352425	0
503	679271	47.59830352425	0
503	681931	47.605947980268	0
503	683283	47.610947980268	0
503	687712	47.629087539676	0
503	688927	47.634087539676	0
503	690389	47.639087539676	0
503	692336	47.644087539676	0
503	694123	47.650541304449	0
503	696156	47.655541304449	0
503	697927	47.660541304449	0
503	699581	47.665541304449	0
503	700647	47.670541304449	0
503	702359	47.675541304449	0
503	704735	47.684121114018	0
503	705677	47.689121114018	0
503	706795	47.694121114018	0
503	708437	47.699145363225	0
503	709850	47.704145363225	0
503	713344	47.714123532287	0
503	714731	47.719123532287	0
503	716061	47.724123532287	0
503	717145	47.729123532287	0
503	718879	47.7341505623	0
503	720866	47.7391505623	0
503	722537	47.745108200396	0
503	723547	47.750108200396	0
503	725047	47.755108200396	0
503	729789	47.768466665911	0
503	731854	47.773466665911	0
503	733414	47.778466665911	0
503	734483	47.783466665911	0
503	735860	47.788466665911	0
503	737227	47.793466665911	0
503	740169	47.803404930053	0
503	741546	47.808404930053	0
503	742731	47.813404930053	0
503	744079	47.820652497456	0
503	745329	47.825652497456	0
503	746681	47.830652497456	0
503	747914	47.835652497456	0
503	749923	47.843562630741	0
503	751500	47.848562630741	0
503	752815	47.853562630741	0
503	754874	47.860758132479	0
503	756106	47.865758132479	0
503	757930	47.87223349856	0
503	759013	47.87723349856	0
503	760650	47.88223349856	0
503	762750	47.890036651707	0
503	763814	47.895036651707	0
503	765118	47.900036651707	0
503	766295	47.905036651707	0
503	768495	47.912356988623	0
503	770064	47.917356988623	0
503	771149	47.922356988623	0
503	772666	47.927356988623	0
503	774423	47.932356988623	0
503	775345	47.937356988623	0
503	776616	47.942356988623	0
503	777567	47.947356988623	0
503	779168	47.952356988623	0
503	780351	47.957356988623	0
503	782272	47.962826712819	0
503	783530	47.967826712819	0
503	785063	47.973699998179	0
503	785983	47.978699998179	0
503	787443	47.984179964625	0
503	788929	47.989179964625	0
503	789800	47.994179964625	0
503	791012	47.999179964625	0
503	792614	48.004179964625	0
503	794074	48.009179964625	0
503	795272	48.014179964625	0
503	796270	48.019570640616	0
503	796566	48.024570640616	0
503	798030	48.029742758458	0
503	799385	48.034742758458	0
503	800766	48.039742758458	0
503	801342	48.044742758458	0
503	802516	48.05468171919	0
503	803245	48.05968171919	0
503	804723	48.06468171919	0
503	806394	48.079069462549	0
503	807285	48.084069462549	0
503	808136	48.089069462549	0
503	808614	48.094185508736	0
503	808619	48.099185508736	0
503	809844	48.106701488237	0
503	810261	48.111701488237	0
503	811048	48.121244126634	0
503	811049	48.126244126634	0
503	811692	48.136811686982	0
503	812304	48.141811686982	0
503	812305	48.146811686982	0
503	813060	48.164079204396	0
503	813551	48.169079204396	0
503	813552	48.174079204396	0
503	813571	48.505	1
503	814285	48.51	26
503	816219	48.515	0
503	817867	48.52	0
503	819163	48.525	0
503	820330	48.53	0
503	821100	48.535	0
503	821708	48.54	0
503	823031	48.545	0
503	824287	48.55	0
503	825159	48.555	0
503	826612	48.56	0
503	827536	48.565	0
503	828431	48.57	0
503	829482	48.575	0
503	830463	48.58	0
503	831218	48.585	0
503	832241	48.59	0
503	833455	48.5967758036	0
503	834847	48.6017758036	0
503	837676	48.613478310367	0
503	838539	48.618478310367	0
503	840263	48.629252310515	0
503	841608	48.634252310515	0
503	842779	48.639252310515	0
503	844092	48.644864885319	0
503	845033	48.649864885319	0
503	845621	48.654864885319	0
503	846624	48.659864885319	0
503	848281	48.668054454344	0
503	848857	48.673054454344	0
503	849937	48.68185447942	0
503	851145	48.68685447942	0
503	851884	48.69185447942	0
503	852898	48.69685447942	0
503	855861	48.718913217189	0
503	857598	48.723913217189	0
503	858605	48.728913217189	0
503	859488	48.733913217189	0
503	859775	48.738913217189	0
503	861241	48.7461385127	0
503	862178	48.7511385127	0
503	862747	48.7561385127	0
503	862884	48.7611385127	0
503	863936	48.76762006349	0
503	864362	48.77262006349	0
503	866483	48.790917792334	0
503	866931	48.795917792334	0
503	867067	48.800917792334	0
503	868161	48.806271317915	0
503	868294	48.811271317915	0
503	869341	48.818035213131	0
503	869342	48.823035213131	0
503	869936	48.831208448891	0
503	869937	48.836208448891	0
503	870227	49.505	1
503	870366	49.51	0
503	873249	49.516579872114	56
503	876079	49.521579872114	0
503	877730	49.526579872114	0
503	879883	49.531579872114	0
503	881264	49.536579872114	0
503	882944	49.541579872114	0
503	885044	49.547647379946	0
503	886650	49.552647379946	0
503	888964	49.560851255887	0
503	890323	49.565851255887	0
503	892192	49.573391827002	0
503	893897	49.578391827002	0
503	895268	49.583391827002	0
503	897367	49.589401186923	0
503	898918	49.594401186923	0
503	900492	49.600637404315	0
503	901781	49.605637404315	0
503	903762	49.612010283672	0
503	905302	49.617010283672	0
503	907138	49.622010283672	0
503	910845	49.636244993886	0
503	911932	49.641244993886	0
503	914477	49.64858340847	0
503	916278	49.65358340847	0
503	920220	49.666614655569	0
503	921459	49.671614655569	0
503	922901	49.676614655569	0
503	924692	49.681614655569	0
503	926471	49.686614655569	0
503	930215	49.698527394151	0
503	931575	49.703527394151	0
503	933488	49.708527394151	0
503	934568	49.713527394151	0
503	936456	49.720437055214	0
503	937800	49.725437055214	0
503	938906	49.730437055214	0
503	940876	49.735437055214	0
503	942352	49.740437055214	0
503	943672	49.745437055214	0
503	945034	49.750437055214	0
503	947271	49.758206810926	0
503	948261	49.763206810926	0
503	949608	49.768206810926	0
503	951132	49.773271533306	0
503	953385	49.778271533306	0
503	954948	49.783271533306	0
503	956697	49.790220560424	0
503	957487	49.795220560424	0
503	959434	49.800220560424	0
503	960895	49.805220560424	0
503	962492	49.812066437621	0
503	963595	49.817066437621	0
503	965299	49.822066437621	0
503	966416	49.827066437621	0
503	969903	49.838335668849	0
503	970961	49.843335668849	0
503	974869	49.862419055488	0
503	976151	49.867419055488	0
503	977220	49.872419055488	0
503	979201	49.880403163593	0
503	980082	49.885403163593	0
503	982616	49.895269171109	0
503	983942	49.900269171109	0
503	985070	49.905269171109	0
503	986806	49.910269171109	0
503	988187	49.916657900615	0
503	989281	49.921657900615	0
503	990902	49.926899000861	0
503	991546	49.931899000861	0
503	992591	49.936899000861	0
503	994299	49.94515781762	0
503	995209	49.95015781762	0
503	997497	49.962095405668	0
503	998847	49.967095405668	0
503	1000116	49.972095405668	0
503	1001583	49.977095405668	0
503	1002375	49.982095405668	0
503	1003115	49.987095405668	0
503	1004659	49.99350520017	0
503	1005760	49.99850520017	0
503	1006929	50.00350520017	0
503	1008364	50.011366482934	0
503	1009139	50.016366482934	0
503	1009603	50.021366482934	0
503	1010413	50.026366482934	0
503	1010727	50.031366482934	0
503	1011832	50.038458587637	0
503	1012902	50.043458587637	0
503	1013967	50.063033595461	0
503	1014752	50.068033595461	0
503	1016949	50.120166507497	0
503	1016950	50.125166507497	0
503	1017562	50.148020833181	0
503	1017563	50.153020833181	0
503	1017708	50.505	1
503	1019735	50.51	38
503	1021710	50.515	0
503	1022923	50.52	0
503	1024180	50.525	0
503	1025640	50.53	0
503	1027040	50.536104286827	0
503	1028748	50.541104286827	0
503	1030349	50.546506987094	0
503	1031865	50.551506987094	0
503	1033631	50.556506987094	0
503	1034581	50.561506987094	0
503	1035910	50.566506987094	0
503	1037904	50.574489547254	0
503	1038839	50.579489547254	0
503	1040830	50.584489547254	0
503	1042525	50.589489547254	0
503	1044571	50.594489547254	0
503	1046493	50.600704408806	0
503	1047121	50.605704408806	0
503	1048364	50.611165494695	0
503	1049716	50.616165494695	0
503	1051638	50.622998210296	0
503	1052829	50.627998210296	0
503	1055505	50.635855215685	0
503	1056844	50.640855215685	0
503	1058748	50.648784334456	0
503	1060272	50.653784334456	0
503	1061514	50.658784334456	0
503	1063082	50.663784334456	0
503	1064733	50.670218981574	0
503	1065614	50.675218981574	0
503	1067528	50.680463320164	0
503	1069249	50.685463320164	0
503	1071253	50.691293187552	0
503	1072449	50.696293187552	0
503	1074274	50.705272360123	0
503	1075512	50.710272360123	0
503	1077422	50.715272360123	0
503	1079019	50.720272360123	0
503	1080509	50.725272360123	0
503	1082034	50.730272360123	0
503	1082760	50.735272360123	0
503	1083861	50.740272360123	0
503	1084800	50.745272360123	0
503	1088200	50.762035504578	0
503	1089405	50.767035504578	0
503	1090527	50.772035504578	0
503	1091280	50.777035504578	0
503	1092751	50.78330775138	0
503	1093510	50.78830775138	0
503	1094866	50.793779610969	0
503	1096144	50.798779610969	0
503	1097471	50.803779610969	0
503	1098861	50.808779610969	0
503	1100060	50.813779610969	0
503	1101407	50.818779610969	0
503	1102627	50.823779610969	0
503	1103701	50.828779610969	0
503	1104767	50.833779610969	0
503	1106257	50.842736275762	0
503	1106264	50.847736275762	0
503	1108121	50.857576601951	0
503	1108900	50.862576601951	0
503	1110101	50.867576601951	0
503	1110590	50.872576601951	0
503	1111220	50.881208548319	0
503	1111221	50.886208548319	0
503	1111854	50.895267085431	0
503	1111987	50.900267085431	0
503	1113169	50.905371108856	0
503	1113302	50.910371108856	0
503	1113899	50.916397855793	0
503	1114494	50.921397855793	0
503	1115112	50.926397855793	0
503	1115708	50.932317417007	0
503	1116199	50.937317417007	0
503	1116200	50.942317417007	0
503	1117042	51.505	37
503	1118955	51.51	0
503	1120659	51.515	0
503	1122412	51.52	0
503	1123939	51.526694851036	0
503	1125174	51.531694851036	0
503	1126526	51.536694851036	0
503	1128070	51.541694851036	0
503	1129631	51.546694851036	0
503	1131862	51.551694851036	0
503	1133282	51.556694851036	0
503	1135174	51.561694851036	0
503	1136370	51.566694851036	0
503	1137629	51.574403287008	0
503	1139650	51.579403287008	0
503	1140526	51.584403287008	0
503	1145141	51.600337012408	0
503	1146696	51.605337012408	0
503	1148249	51.612129797046	0
503	1149441	51.617129797046	0
503	1150649	51.622129797046	0
503	1152411	51.627129797046	0
503	1154961	51.63591692276	0
503	1155819	51.64091692276	0
503	1159897	51.659067325495	0
503	1161699	51.664067325495	0
503	1162600	51.669067325495	0
503	1163676	51.674067325495	0
503	1164863	51.679067325495	0
503	1165704	51.684067325495	0
503	1166922	51.689067325495	0
503	1167917	51.694067325495	0
503	1171173	51.709491356217	0
503	1171776	51.714491356217	0
503	1174345	51.723412267192	0
503	1175520	51.728412267192	0