file 221831 1353323795                                          
version 2
run AODVScenario_1f-34-20121119-11:16:12-2120
attr configname AODVScenario_1f
attr datetime 20121119-11:16:12
attr experiment AODVScenario_1f
attr inifile AODV.ini
attr iterationvars $numNodes=84
attr iterationvars2 "$numNodes=84, $repetition=0"
attr measurement $numNodes=84
attr network csma802154net
attr numNodes 84
attr processid 2120
attr repetition 0
attr replication #0
attr resultdir results
attr runnumber 34
attr seedset 34

vector 347  csma802154net.dataCentricNetworkMan  RREQPacketFrequency  ETV
vector 348  csma802154net.dataCentricNetworkMan  RERRPacketFrequency  ETV
vector 349  csma802154net.dataCentricNetworkMan  DiscoveryPacketFrequency  ETV
vector 350  csma802154net.dataCentricNetworkMan  RegisterPacketFrequency  ETV
vector 351  csma802154net.dataCentricNetworkMan  RReplyPacketFrequency  ETV
vector 352  csma802154net.dataCentricNetworkMan  AODVDataPacketFrequency  ETV
vector 359  csma802154net.dataCentricNetworkMan  pendingRegistrationVector  ETV
vector 358  csma802154net.dataCentricNetworkMan  pendingRREQVector  ETV
vector 356  csma802154net.dataCentricNetworkMan  PendingDataPacketsVector  ETV
vector 363  csma802154net.fixhost[3].udpApp  "End-to-end delay"  ETV
vector 344  csma802154net.dataCentricNetworkMan  dataPacketE2EDelay  ETV
vector 372  csma802154net.fixhost[12].udpApp  "End-to-end delay"  ETV
vector 373  csma802154net.fixhost[13].udpApp  "End-to-end delay"  ETV
vector 368  csma802154net.fixhost[8].udpApp  "End-to-end delay"  ETV
vector 370  csma802154net.fixhost[10].udpApp  "End-to-end delay"  ETV
vector 365  csma802154net.fixhost[5].udpApp  "End-to-end delay"  ETV
vector 376  csma802154net.fixhost[16].udpApp  "End-to-end delay"  ETV
vector 381  csma802154net.fixhost[21].udpApp  "End-to-end delay"  ETV
vector 366  csma802154net.fixhost[6].udpApp  "End-to-end delay"  ETV
vector 367  csma802154net.fixhost[7].udpApp  "End-to-end delay"  ETV
vector 369  csma802154net.fixhost[9].udpApp  "End-to-end delay"  ETV
344	2012 6469 633069 2025916 70.00803601745 7273.057972112434 143 0.007076022855 0.069492112434 3.278709315905 0.099049081177526
347	8481 32257 665 2026142 1.005 7273.067972112434 1136 0 125 1875 108017
348	40738 32216 665 2026142 1.005 7273.067972112434 1136 0 0 0 0
349	72954 32216 665 2026142 1.005 7273.067972112434 1136 0 0 0 0
350	105170 32216 665 2026142 1.005 7273.067972112434 1136 0 1 12 12
351	137386 32228 665 2026142 1.005 7273.067972112434 1136 0 87 1335 43313
352	169614 32230 665 2026142 1.005 7273.067972112434 1136 0 86 1064 39256
356	201844 11916 632291 2025916 70 7273.057972112434 390 0 3 455 871
358	213760 1049 31174 572990 43.50001 54.652924138933 38 0 1 16 16
359	214809 553 31169 567785 43.5 54.622087698423 23 0 2 24 36
363	215362 581 633069 2013901 70.00803601745 7270.00867601745 13 0.00771601745 0.011236017451 0.118228226858 0.0010894340943153
365	215943 591 637870 2018709 72.009956022855 7272.008356022855 13 0.007076022855 0.010596022855 0.115028297114 0.0010332944259219
366	216534 591 641583 2023468 73.023956060642 7273.018196060642 13 0.014996060642 0.026692060642 0.259300788343 0.0053188945048728
367	217125 591 643132 2024830 73.036924103736 7273.029564103736 13 0.026116103735 0.062060103735 0.51467734856 0.022372677356284
368	217716 585 636356 2017196 71.019796057961 7271.019724057961 13 0.01467605796 0.047812057961 0.304524753488 0.0083365585168815
369	218301 591 644474 2025916 73.069492112434 7273.057972112434 13 0.028636117664 0.069492112434 0.544637477326 0.02498129249201
370	218892 591 636803 2017642 71.028396091012 7271.024164091013 13 0.020396091013 0.048164091011 0.370173183162 0.011522043396488
372	219483 575 633499 2014331 70.012796034859 7270.013436034859 13 0.012156034858 0.01631603486 0.175628453173 0.0023903638126227
373	220058 591 633935 2014767 70.017876059915 7270.017876059916 13 0.016276059915 0.020436059917 0.234628778912 0.0042536340841475
376	220649 591 638743 2021047 72.019476064332 7272.048452064332 13 0.014356064331 0.048452064332 0.295812836312 0.0076047688922485
381	221240 591 639589 2020016 72.029924090205 7272.020396090204 13 0.020396090204 0.045924090202 0.346069172657 0.010146119601734
