version 2
run AODVScenario_1g-0-20121102-01:32:47-2788
attr configname AODVScenario_1g
attr datetime 20121102-01:32:47
attr experiment AODVScenario_1g
attr inifile AODV.ini
attr iterationvars ""
attr iterationvars2 $repetition=0
attr measurement ""
attr network csma802154net
attr processid 2788
attr repetition 0
attr replication #0
attr resultdir results
attr runnumber 0
attr seedset 0

vector 511  csma802154net.dataCentricNetworkMan  RREQPacketFrequency  ETV
vector 512  csma802154net.dataCentricNetworkMan  RERRPacketFrequency  ETV
vector 513  csma802154net.dataCentricNetworkMan  DiscoveryPacketFrequency  ETV
vector 514  csma802154net.dataCentricNetworkMan  RegisterPacketFrequency  ETV
vector 515  csma802154net.dataCentricNetworkMan  RReplyPacketFrequency  ETV
vector 516  csma802154net.dataCentricNetworkMan  AODVDataPacketFrequency  ETV
vector 521  csma802154net.dataCentricNetworkMan  pendingRegistrationVector  ETV
vector 520  csma802154net.dataCentricNetworkMan  pendingRREQVector  ETV
vector 517  csma802154net.dataCentricNetworkMan  AODVDataLineBreakVector  ETV
vector 518  csma802154net.dataCentricNetworkMan  PendingDataPacketsVector  ETV
vector 541  csma802154net.fixhost[19].udpApp  "End-to-end delay"  ETV
vector 508  csma802154net.dataCentricNetworkMan  dataPacketE2EDelay  ETV
vector 542  csma802154net.fixhost[20].udpApp  "End-to-end delay"  ETV
vector 528  csma802154net.fixhost[6].udpApp  "End-to-end delay"  ETV
vector 539  csma802154net.fixhost[17].udpApp  "End-to-end delay"  ETV
vector 534  csma802154net.fixhost[12].udpApp  "End-to-end delay"  ETV
vector 531  csma802154net.fixhost[9].udpApp  "End-to-end delay"  ETV
vector 538  csma802154net.fixhost[16].udpApp  "End-to-end delay"  ETV
vector 533  csma802154net.fixhost[11].udpApp  "End-to-end delay"  ETV
vector 532  csma802154net.fixhost[10].udpApp  "End-to-end delay"  ETV
vector 525  csma802154net.fixhost[3].udpApp  "End-to-end delay"  ETV
vector 524  csma802154net.fixhost[2].udpApp  "End-to-end delay"  ETV
vector 523  csma802154net.fixhost[1].udpApp  "End-to-end delay"  ETV
508	604684	70.013756059794	0.013756059794
508	605281	70.018196086342	0.018196086342
508	605892	70.09215604399	0.09215604399
508	609301	71.024236100995	0.024236100995
508	609956	71.029036083	0.029036083
508	610588	71.089236050272	0.089236050272
508	615681	72.034324120157	0.034324120157
508	616308	72.037804130315	0.037804130315
508	617515	72.055732075743	0.055732075743
508	625254	73.047756124693	0.047756124693
508	675373	73.179921039043	0.179921039043
508	676028	73.182484075334	0.182484075334
508	838935	670.02199606883	0.02199606883
508	839562	670.024804084634	0.024804084634
508	840159	670.031164111181	0.031164111181
508	844163	671.028676111822	0.028676111822
508	844804	671.047276061098	0.047276061098
508	845443	671.084676093825	0.084676093825
508	851388	672.043996076389	0.043996076389
508	853215	672.062692120803	0.062692120803
508	853841	672.067452130961	0.067452130961
508	860024	673.033436092761	0.033436092761
508	863177	673.066812123948	0.066812123948
508	864417	673.072924158915	0.072924158915
508	1020560	1270.020716084634	0.020716084634
508	1021166	1270.02295606883	0.02295606883
508	1021794	1270.025796111182	0.025796111182
508	1025208	1271.021036061099	0.021036061099
508	1026473	1271.029884093826	0.029884093826
508	1027074	1271.033404111822	0.033404111822
508	1031842	1272.034396076389	0.034396076389
508	1033677	1272.062124104345	0.062124104345
508	1034894	1272.071332120803	0.071332120803
508	1042268	1273.048604158916	0.048604158916
508	1043610	1273.05497212395	0.05497212395
508	1044919	1273.063372092762	0.063372092762
508	1201179	1870.02455606883	0.02455606883
508	1202717	1870.054812084633	0.054812084633
508	1203313	1870.062132111181	0.062132111181
508	1206990	1871.021996061099	0.021996061099
508	1208266	1871.051324093826	0.051324093826
508	1208864	1871.053812111822	0.053812111822
508	1213630	1872.035036076387	0.035036076387
508	1215439	1872.063084120802	0.063084120802
508	1216683	1872.077340104344	0.077340104344
508	1222007	1873.031196092761	0.031196092761
508	1224085	1873.04032412395	0.04032412395
508	1226673	1873.080780158915	0.080780158915
508	1382816	2470.020716084634	0.020716084634
508	1383429	2470.02416406883	0.02416406883
508	1384057	2470.028924111182	0.028924111182
508	1387470	2471.024876061099	0.024876061099
508	1388971	2471.054844111823	0.054844111823
508	1390515	2471.084780093827	0.084780093827
508	1395284	2472.027676076389	0.027676076389
508	1397380	2472.061412104345	0.061412104345
508	1398601	2472.086940120803	0.086940120803
508	1404490	2473.032476092762	0.032476092762
508	1406609	2473.043556158916	0.043556158916
508	1409219	2473.071860123951	0.071860123951
508	1565358	3070.02071606883	0.02071606883
508	1565986	3070.026404084633	0.026404084633
508	1566582	3070.029884111181	0.029884111181
508	1569994	3071.018476061099	0.018476061099
508	1571213	3071.025796111823	0.025796111823
508	1571868	3071.031804093827	0.031804093827
508	1576637	3072.026076076388	0.026076076388
508	1579063	3072.057252104343	0.057252104343
508	1579688	3072.0645401208	0.0645401208
508	1586878	3073.045052123951	0.045052123951
508	1588249	3073.050524158916	0.050524158916
508	1589732	3073.082748092761	0.082748092761
508	1745979	3670.018796084634	0.018796084634
508	1746580	3670.022596111182	0.022596111182
508	1747191	3670.02601206883	0.02601206883
508	1750897	3671.024556061098	0.024556061098
508	1752120	3671.054204111822	0.054204111822
508	1752775	3671.057404093826	0.057404093826
508	1758005	3672.032404076388	0.032404076388
508	1759381	3672.041964104342	0.041964104342
508	1760602	3672.0617321208	0.0617321208
508	1767217	3673.036244092762	0.036244092762
508	1768141	3673.039116123951	0.039116123951
508	1770594	3673.081420158916	0.081420158916
508	1926737	4270.020076084632	0.020076084632
508	1927337	4270.02355611118	0.02355611118
508	1927949	4270.028572068826	0.028572068826
508	1931392	4271.020396061097	0.020396061097
508	1932660	4271.029244093824	0.029244093824
508	1933258	4271.031804111821	0.031804111821
508	1938964	4272.0362761208	0.0362761208
508	1940476	4272.047084104343	0.047084104343
508	1941714	4272.062660076385	0.062660076385
508	1947933	4273.03688409276	0.03688409276
508	1950181	4273.047932123949	0.047932123949
508	1951418	4273.054148158911	0.054148158911
508	2107558	4870.022316084634	0.022316084634
508	2108172	4870.02583606883	0.02583606883
508	2108799	4870.028924111182	0.028924111182
508	2112845	4871.021284061099	0.021284061099
508	2113439	4871.023556111823	0.023556111823
508	2114094	4871.028852093827	0.028852093827
508	2119185	4872.033116076389	0.033116076389
508	2120403	4872.045804120803	0.045804120803
508	2121645	4872.059028104345	0.059028104345
508	2127258	4873.035284092761	0.035284092761
508	2130624	4873.060052158914	0.060052158914
508	2134098	4873.118868105437	0.118868105437
508	2290990	5470.026796084634	0.026796084634
508	2291587	5470.032196111182	0.032196111182
508	2292199	5470.041836068829	0.041836068829
508	2296267	5471.022636061098	0.022636061098
508	2296861	5471.026044111822	0.026044111822
508	2297516	5471.031876093826	0.031876093826
508	2302286	5472.032156076389	0.032156076389
508	2304711	5472.064612104345	0.064612104345
508	2305330	5472.066532120803	0.066532120803
508	2310071	5473.029596092762	0.029596092762
508	2313108	5473.047324158916	0.047324158916
508	2315058	5473.05618012395	0.05618012395
508	2471197	6070.021676068829	0.021676068829
508	2471825	6070.025764084633	0.025764084633
508	2472421	6070.029564111181	0.029564111181
508	2475835	6071.021036061099	0.021036061099
508	2477104	6071.031484093827	0.031484093827
508	2477701	6071.034044111823	0.034044111823
508	2483080	6072.030804076389	0.030804076389
508	2484314	6072.039972104343	0.039972104343
508	2486384	6072.083172120801	0.083172120801
508	2492954	6073.040012092761	0.040012092761
508	2493611	6073.042532105437	0.042532105437
508	2496996	6073.081740158913	0.081740158913
508	2653137	6670.024236084634	0.024236084634
508	2654597	6670.054844111182	0.054844111182
508	2655208	6670.06626006883	0.06626006883
508	2658914	6671.021996061099	0.021996061099
508	2660442	6671.051964093826	0.051964093826
508	2661047	6671.076852111823	0.076852111823
508	2666750	6672.033044076389	0.033044076389
508	2667357	6672.034996120803	0.034996120803
508	2668602	6672.050532104344	0.050532104344
508	2674046	6673.032156092762	0.032156092762
508	2676620	6673.047076158915	0.047076158915
508	2679837	6673.07673212395	0.07673212395
508	2836088	7270.020396084634	0.020396084634
508	2836830	7270.02512406883	0.02512406883
508	2837591	7270.05004411118	0.05004411118
508	2841005	7271.022316061098	0.022316061098
508	2842277	7271.029884093826	0.029884093826
508	2842875	7271.032372111821	0.032372111821
508	2849137	7272.034356104345	0.034356104345
508	2850505	7272.055444076388	0.055444076388
508	2851852	7272.084380120802	0.084380120802
508	2856870	7273.032156092762	0.032156092762
508	2859363	7273.04416412395	0.04416412395
508	2862427	7273.075732158915	0.075732158915
511	1005	1.005	1
511	1146	1.01	0
511	2117	1.016456446436	150
511	4479	1.021456446436	112
511	7740	1.026456446436	118
511	11506	1.031456446436	119
511	15904	1.036456446436	81
511	18684	1.041456446436	96
511	21892	1.046456446436	108
511	24203	1.051456446436	146
511	26540	1.056456446436	72
511	28808	1.061456446436	61
511	31184	1.066456446436	109
511	33193	1.071456446436	119
511	34857	1.076456446436	111
511	36463	1.081456446436	70
511	38263	1.086456446436	110
511	39522	1.091456446436	86
511	41284	1.096456446436	134
511	42267	1.101456446436	56
511	43049	1.106456446436	77
511	43053	1.111456446436	0
511	44416	1.118638893926	110
511	44891	1.123638893926	41
511	45516	1.128638893926	71
511	45520	1.133638893926	0
511	46603	1.141899270928	84
511	47697	1.146899270928	142
511	48920	1.151899270928	69
511	50001	1.156899270928	69
511	51162	1.161899270928	125
511	52552	1.166899270928	114
511	53380	1.171899270928	58
511	53867	1.176899270928	71
511	53868	1.181899270928	0
511	54821	1.190211172359	82
511	54828	1.195211172359	0
511	55333	1.202109294049	49
511	55334	1.207109294049	0
511	56450	1.2253251239	117
511	56451	1.2303251239	0
511	57628	3.005	0
511	58252	3.01	1
511	58262	3.015	0
511	59282	3.022341120634	73
511	60718	3.027341120634	119
511	64594	3.032341120634	139
511	67731	3.037341120634	126
511	71372	3.042341120634	76
511	75760	3.047341120634	103
511	78697	3.052341120634	123
511	81308	3.057341120634	62
511	83616	3.062341120634	146
511	85406	3.067341120634	106
511	87513	3.072341120634	171
511	88753	3.077341120634	84
511	89471	3.082341120634	58
511	90967	3.087341120634	102
511	92975	3.092341120634	90
511	94084	3.097341120634	140
511	95602	3.102341120634	81
511	95609	3.107341120634	0
511	96676	3.114774544825	106
511	97475	3.119774544825	53
511	98866	3.124774544825	140
511	100048	3.129774544825	95
511	101084	3.134774544825	27
511	102067	3.139774544825	25
511	102528	3.144774544825	39
511	103087	3.149774544825	58
511	103831	3.154774544825	68
511	105564	3.159774544825	155
511	106835	3.164774544825	81
511	107258	3.169774544825	0
511	107679	3.17550938562	57
511	108207	3.18050938562	53
511	108348	3.18550938562	0
511	108982	3.192016580311	73
511	109878	3.197016580311	0
511	110085	3.202016580311	0
511	110558	3.209487949823	42
511	110693	3.214487949823	0
511	111030	3.220911683687	41
511	111165	3.225911683687	0
511	111637	3.232158353385	68
511	111638	3.237158353385	0
511	112179	3.270885848066	55
511	112180	3.275885848066	0
511	113045	4.005	0
511	113639	4.01	0
511	114506	5.005	0
511	115102	5.01	0
511	115983	6.005	0
511	116589	6.01	1
511	116596	6.015	0
511	117662	6.023383544966	109
511	119830	6.028383544966	134
511	123400	6.033383544966	101
511	126673	6.038383544966	105
511	130577	6.043383544966	64
511	134195	6.048383544966	124
511	136842	6.053383544966	130
511	139535	6.058383544966	134
511	141876	6.063383544966	63
511	143689	6.068383544966	131
511	145717	6.073383544966	132
511	147371	6.078383544966	107
511	148607	6.083383544966	83
511	150498	6.088383544966	154
511	152338	6.093383544966	144
511	153862	6.098383544966	68
511	155210	6.103383544966	50
511	157013	6.108383544966	142
511	157152	6.113383544966	0
511	158499	6.11892662017	131
511	159732	6.12392662017	70
511	161570	6.12892662017	67
511	162891	6.13392662017	125
511	163032	6.13892662017	0
511	164035	6.14476967208	94
511	164985	6.14976967208	72
511	165538	6.15476967208	26
511	166489	6.15976967208	81
511	167345	6.16476967208	59
511	168085	6.16976967208	66
511	168277	6.17476967208	0
511	169743	6.18536229017	130
511	169744	6.19036229017	0
511	170980	6.202323495854	72
511	170981	6.207323495854	0
511	171942	6.224180360891	51
511	172097	6.229180360891	0
511	174348	7.005	0
511	174961	7.01	1
511	175102	7.015	0
511	175538	7.020668783216	46
511	178043	7.025668783216	240
511	180760	7.030668783216	107
511	184594	7.035668783216	165
511	188473	7.040668783216	75
511	191512	7.045668783216	100
511	194448	7.050668783216	98
511	196808	7.055668783216	99
511	199237	7.060668783216	142
511	201579	7.065668783216	155
511	203583	7.070668783216	151
511	204488	7.075668783216	72
511	206367	7.080668783216	113
511	208459	7.085668783216	77
511	210055	7.090668783216	134
511	211740	7.095668783216	142
511	213037	7.100668783216	116
511	214708	7.105668783216	148
511	215399	7.110668783216	51
511	217326	7.115668783216	124
511	217477	7.120668783216	0
511	218413	7.125668783216	79
511	219563	7.130668783216	25
511	220614	7.135668783216	100
511	221754	7.140668783216	89
511	222794	7.145668783216	99
511	223809	7.150668783216	95
511	225730	7.155668783216	168
511	225879	7.160668783216	0
511	227032	7.168213232534	125
511	227033	7.173213232534	0
511	228442	7.182223609284	43
511	229171	7.187223609284	65
511	229684	7.192223609284	0
511	230225	7.202041688645	55
511	230226	7.207041688645	0
511	231177	7.218408024392	84
511	231178	7.223408024392	0
511	232055	8.005	0
511	232661	8.01	0
511	233677	9.005	0
511	234342	9.01	0
511	234972	9.015	1
511	234973	9.02	0
511	235807	9.03098563263	71
511	237582	9.03598563263	109
511	240316	9.04098563263	138
511	243828	9.04598563263	87
511	247037	9.05098563263	107
511	250567	9.05598563263	87
511	253631	9.06098563263	80
511	256047	9.06598563263	77
511	258983	9.07098563263	135
511	260842	9.07598563263	139
511	262691	9.08098563263	112
511	265177	9.08598563263	132
511	267184	9.09098563263	120
511	268836	9.09598563263	139
511	270205	9.10098563263	81
511	271090	9.10598563263	66
511	272835	9.11098563263	62
511	274504	9.11598563263	108
511	276588	9.12098563263	138
511	278177	9.12598563263	97
511	280421	9.13098563263	108
511	281286	9.13598563263	0
511	283279	9.142047393594	177
511	283865	9.147047393594	62
511	284531	9.152047393594	53
511	285750	9.157047393594	138
511	286145	9.162047393594	52
511	286737	9.167047393594	39
511	287194	9.172047393594	65
511	287195	9.177047393594	0
511	287726	9.1859091369	53
511	287861	9.1909091369	0
511	288298	9.196348765162	61
511	288299	9.201348765162	0
511	288905	9.214239971135	68
511	289040	9.219239971135	0
511	289527	9.225415815969	71
511	289528	9.230415815969	0
511	290416	10.005	0
511	291067	10.01	0
511	291731	10.015	0
511	292350	10.02	1
511	292764	10.025	46
511	293983	10.03	78
511	296222	10.035	143
511	299355	10.04	113
511	303258	10.045	108
511	307077	10.05	93
511	310218	10.055	79
511	312887	10.06	99
511	315543	10.065	153
511	317402	10.07	84
511	319919	10.075	159
511	321465	10.08	87
511	323706	10.085	132
511	325450	10.09	95
511	327087	10.095	156
511	328303	10.1	48
511	330061	10.105	130
511	331298	10.11	137
511	332668	10.115	44
511	334331	10.12	109
511	336230	10.125	102
511	337610	10.13	111
511	338433	10.135	84
511	339057	10.14	0
511	340507	10.147143549798	124
511	340645	10.152143549798	0
511	342025	10.15722702135	35
511	342826	10.16222702135	44
511	343465	10.16722702135	73
511	344446	10.17222702135	116
511	344447	10.17722702135	0
511	345593	10.18697973441	123
511	345594	10.19197973441	0
511	346804	10.212578823796	135
511	346943	10.217578823796	0
511	347380	10.222651490898	61
511	347381	10.227651490898	0
511	347952	10.245783015196	61
511	347953	10.250783015196	0
511	348663	10.267147206193	62
511	349150	10.272147206193	71
511	349151	10.277147206193	0
511	350026	11.005	0
511	350027	11.01	0
511	350624	11.031286029729	1
511	350765	11.036286029729	0
511	351475	11.041783337469	80
511	352839	11.046783337469	103
511	355262	11.051783337469	31
511	359210	11.056783337469	142
511	361675	11.061783337469	79
511	365032	11.066783337469	80
511	367827	11.071783337469	133
511	370294	11.076783337469	135
511	373298	11.081783337469	134
511	375829	11.086783337469	88
511	378183	11.091783337469	105
511	380065	11.096783337469	124
511	382230	11.101783337469	113
511	383533	11.106783337469	96
511	385646	11.111783337469	114
511	387553	11.116783337469	95
511	389228	11.121783337469	164
511	390899	11.126783337469	104
511	391307	11.131783337469	0
511	392200	11.136866449326	65
511	392497	11.141866449326	33
511	392499	11.146866449326	0
511	394952	11.157978941418	94
511	395731	11.162978941418	72
511	396959	11.167978941418	81
511	398135	11.172978941418	124
511	399137	11.177978941418	94
511	400553	11.182978941418	146
511	400951	11.187978941418	27
511	401582	11.192978941418	73
511	402208	11.197978941418	72
511	402209	11.202978941418	0
511	402764	11.211790744253	31
511	403209	11.216790744253	62
511	403812	11.221790744253	68
511	403947	11.226790744253	0
511	404419	11.232818798613	68
511	404420	11.237818798613	0
511	405001	11.2485507373	63
511	405002	11.2535507373	0
511	406038	12.005	0
511	406820	12.01	0
511	407300	12.015	1
511	407301	12.02	0
511	408381	12.02917327971	113
511	410840	12.03417327971	69
511	414295	12.03917327971	122
511	418271	12.04417327971	77
511	421753	12.04917327971	149
511	424629	12.05417327971	88
511	427933	12.05917327971	90
511	430107	12.06417327971	143
511	431883	12.06917327971	67
511	433865	12.07417327971	107
511	435993	12.07917327971	91
511	437510	12.08417327971	136
511	438769	12.08917327971	89
511	440113	12.09417327971	28
511	441810	12.09917327971	117
511	443286	12.10417327971	157
511	443771	12.10917327971	5
511	443910	12.11417327971	0
511	444970	12.120030572476	105
511	445464	12.125030572476	45
511	447373	12.130030572476	163
511	448739	12.135030572476	62
511	449533	12.140030572476	74
511	450732	12.145030572476	132
511	451946	12.150030572476	136
511	453110	12.155030572476	53
511	453859	12.160030572476	42
511	454846	12.165030572476	118
511	454981	12.170030572476	0
511	455606	12.175159376841	71
511	456796	12.180159376841	68
511	457228	12.185159376841	59
511	457883	12.190159376841	0
511	458541	12.195159376841	10
511	458545	12.200159376841	0
511	459778	12.20764751675	141
511	460399	12.21264751675	71
511	460535	12.21764751675	0
511	462243	12.240487528114	132
511	462247	12.245487528114	0
511	462868	12.253969222191	71
511	463494	12.258969222191	72
511	463495	12.263969222191	0
511	464204	13.005	0
511	465147	13.01	0
511	465744	13.015	1
511	465885	13.02	0
511	466605	13.026467774958	46
511	468351	13.031467774958	83
511	470090	13.036467774958	113
511	473142	13.041467774958	163
511	477077	13.046467774958	144
511	480327	13.051467774958	110
511	483585	13.056467774958	120
511	486900	13.061467774958	118
511	489550	13.066467774958	134
511	491921	13.071467774958	100
511	493966	13.076467774958	128
511	496037	13.081467774958	78
511	497909	13.086467774958	93
511	498629	13.091467774958	62
511	501244	13.096467774958	137
511	501983	13.101467774958	64
511	503599	13.106467774958	135
511	504185	13.111467774958	60
511	504949	13.116467774958	73
511	505959	13.121467774958	122
511	506670	13.126467774958	62
511	507816	13.131467774958	147
511	509369	13.136467774958	149
511	509373	13.141467774958	0
511	510803	13.149484966059	115
511	511667	13.154484966059	60
511	512387	13.159484966059	64
511	513762	13.164484966059	139
511	513898	13.169484966059	0
511	515177	13.175815175439	68
511	516580	13.180815175439	72
511	517035	13.185815175439	36
511	517638	13.190815175439	0
511	518828	13.195815175439	65
511	519717	13.200815175439	63
511	520059	13.205815175439	0
511	520615	13.214581973986	58
511	520620	13.219581973986	0
511	525265	13.367686033945	0
511	525420	13.372686033945	0
511	526349	14.005	0
511	526984	14.01	0
511	527582	14.015	1
511	527723	14.02	0
511	528172	14.025429846386	46
511	530005	14.030429846386	147
511	533037	14.035429846386	75
511	536318	14.040429846386	106
511	539328	14.045429846386	119
511	542089	14.050429846386	99
511	544535	14.055429846386	135
511	548088	14.060429846386	105
511	550401	14.065429846386	143
511	552468	14.070429846386	128
511	554359	14.075429846386	124
511	556611	14.080429846386	173
511	557665	14.085429846386	125
511	558742	14.090429846386	79
511	560456	14.095429846386	151
511	562446	14.100429846386	118
511	564139	14.105429846386	119
511	565273	14.110429846386	117
511	566514	14.115429846386	86
511	567819	14.120429846386	151
511	568501	14.125429846386	54
511	569855	14.130429846386	107
511	570391	14.135429846386	54
511	571568	14.140429846386	124
511	572716	14.145429846386	97
511	574416	14.150429846386	96
511	575103	14.155429846386	55
511	575882	14.160429846386	0
511	576939	14.165429846386	97
511	578213	14.170429846386	93
511	579455	14.175429846386	140
511	579920	14.180429846386	41
511	580531	14.185429846386	0
511	580541	14.190429846386	0
511	581387	14.195429846386	56
511	581388	14.200429846386	0
511	583107	14.208790402327	185
511	583112	14.213790402327	0
511	583862	14.221553021034	0
511	585318	14.226553021034	62
511	586101	14.231553021034	0
511	586713	14.236553021034	0
511	587356	14.241553021034	0
511	588025	14.246553021034	0
511	603645	70.00501	0
511	604392	70.01001	0
511	604989	70.01501	0
511	606957	71.00501	0
511	607768	71.01001	0
511	608380	71.01501	0
511	608809	71.02001	0
511	609618	71.02501	0
511	611577	72.00501	0
511	612358	72.01001	0
511	612975	72.01501	0
511	613554	72.02001	0
511	614153	72.02501	0
511	614905	72.03001	0
511	615989	72.03501	0
511	616626	72.04001	0
511	617212	72.047332066791	0
511	617213	72.052332066791	0
511	618752	73.00501	0
511	618753	73.01001	0
511	619526	73.022316022504	0
511	620141	73.027316022504	1
511	621214	73.032316022504	0
511	621840	73.037316022504	0
511	623246	73.042316022504	30
511	624784	73.047316022504	23
511	627380	73.052316022504	157
511	630139	73.057316022504	157
511	633505	73.062316022504	123
511	637559	73.067316022504	126
511	642169	73.072316022504	69
511	644634	73.077316022504	111
511	646539	73.082316022504	116
511	648994	73.087316022504	146
511	651225	73.092316022504	105
511	653003	73.097316022504	116
511	654986	73.102316022504	120
511	656973	73.107316022504	130
511	658723	73.112316022504	128
511	660480	73.117316022504	136
511	662138	73.122316022504	63
511	663685	73.127316022504	114
511	663854	73.132316022504	0
511	665330	73.137316022504	70
511	666053	73.142316022504	64
511	667586	73.147316022504	31
511	668459	73.152316022504	64
511	669668	73.157316022504	70
511	670793	73.162316022504	74
511	671991	73.167316022504	53
511	672941	73.172316022504	10
511	674470	73.177316022504	21
511	675824	73.182316022504	0
511	676960	73.187316022504	69
511	677425	73.192316022504	0
511	678321	73.200058360772	62
511	678749	73.205058360772	59
511	678884	73.210058360772	0
511	680044	73.216553850502	125
511	680670	73.221553850502	72
511	681167	73.226553850502	73
511	681168	73.231553850502	0
511	682354	73.252671415976	131
511	682361	73.257671415976	0
511	682991	73.264751962534	74
511	682992	73.269751962534	0
511	836787	670.00501	0
511	837419	670.01001	0
511	838033	670.01501	0
511	838629	670.02001	0
511	839695	670.02501	0
511	841063	671.00501	0
511	842019	671.01001	0
511	842633	671.01501	0
511	843245	671.02001	0
511	843871	671.02501	0
511	844480	671.03001	0
511	846612	672.00501	0
511	847246	672.01001	0
511	847866	672.01501	0
511	848599	672.02001	0
511	849178	672.02501	0
511	850365	672.03001	0
511	851085	672.03501	0
511	851086	672.04001	0
511	853040	672.062612094187	0
511	853842	672.067612094187	0
511	855095	673.00501	0
511	855749	673.01001	0
511	856506	673.01501	0
511	857587	673.02001	0
511	858175	673.02501	0
511	859486	673.03001	0
511	860344	673.03501	0
511	860953	673.04184412684	0
511	860954	673.04684412684	0
511	862833	673.062612101346	0
511	863500	673.067612101346	0
511	864754	673.074444143393	0
511	864755	673.079444143393	0
511	1018426	1270.00501	0
511	1019058	1270.01001	0
511	1019675	1270.01501	0
511	1020399	1270.02001	0
511	1021636	1270.02501	0
511	1023022	1271.00501	0
511	1023657	1271.01001	0
511	1024271	1271.01501	0
511	1025017	1271.02001	0
511	1025644	1271.02501	0
511	1026782	1271.030764082516	0
511	1027391	1271.035764082516	0
511	1028249	1272.00501	0
511	1028883	1272.01001	0
511	1029503	1272.01501	0
511	1029638	1272.02001	0
511	1030681	1272.026086044956	0
511	1031540	1272.031086044956	0
511	1032144	1272.036086044956	0
511	1033358	1272.059204077942	0
511	1034413	1272.064204077942	0
511	1034588	1272.069204077942	0
511	1036143	1273.00501	0
511	1036928	1273.01001	0
511	1037554	1273.01501	0
511	1038034	1273.02001	0
511	1038639	1273.02501	0
511	1039225	1273.03001	0
511	1040137	1273.03501	0
511	1040867	1273.04001	0
511	1041956	1273.04501	0
511	1042736	1273.05001	0
511	1043933	1273.056172107644	0
511	1044584	1273.061172107644	0
511	1045236	1273.066172107644	0
511	1199032	1870.00501	0
511	1199496	1870.01001	0
511	1200278	1870.01501	0
511	1200413	1870.02001	0
511	1201645	1870.025756054732	0
511	1201784	1870.030756054732	0
511	1204544	1871.00501	0
511	1205176	1871.01001	0
511	1205790	1871.01501	0
511	1206405	1871.02001	0
511	1207295	1871.02501	0
511	1208575	1871.052204082516	0
511	1209181	1871.057204082516	0
511	1209869	1872.00501	0
511	1210673	1872.01001	0
511	1210677	1872.01501	0
511	1211895	1872.022596036527	0
511	1212321	1872.027596036527	0
511	1213331	1872.032596036527	0
511	1213932	1872.037596036527	0
511	1215126	1872.060164077941	0
511	1215750	1872.065164077941	0
511	1216501	1872.076940094186	0
511	1216998	1872.081940094186	0
511	1217738	1873.00501	0
511	1218585	1873.01001	0
511	1219214	1873.01501	0
511	1219831	1873.02001	0
511	1220436	1873.02501	0
511	1221800	1873.03001	0
511	1223076	1873.03501	0
511	1223750	1873.04001	0
511	1224543	1873.04501	0
511	1225275	1873.070860110205	0
511	1226193	1873.075860110205	0
511	1226674	1873.080860110205	0
511	1380681	2470.00501	0
511	1381316	2470.01001	0
511	1381930	2470.01501	0
511	1382657	2470.02001	0
511	1383765	2470.02501	0
511	1385285	2471.00501	0
511	1385917	2471.01001	0
511	1386528	2471.01501	0
511	1386666	2471.02001	0
511	1387903	2471.026076052443	0
511	1388050	2471.031076052443	0
511	1389417	2471.056364082517	0
511	1389568	2471.061364082517	0
511	1391684	2472.00501	0
511	1392449	2472.01001	0
511	1393240	2472.01501	0
511	1393671	2472.02001	0
511	1394711	2472.02501	0
511	1395586	2472.03001	0
511	1397067	2472.059132077942	0
511	1397695	2472.064132077942	0
511	1398912	2472.088140104243	0
511	1398913	2472.093140104243	0
511	1399849	2473.00501	0
511	1400506	2473.01001	0
511	1401132	2473.01501	0
511	1401746	2473.02001	0
511	1402354	2473.02501	0
511	1403688	2473.03001	0
511	1405412	2473.03501	0
511	1406294	2473.04001	0
511	1406946	2473.04501	0
511	1408675	2473.068620101348	0
511	1409539	2473.073620101348	0
511	1562886	3070.00501	0
511	1563842	3070.01001	0
511	1564459	3070.01501	0
511	1565186	3070.02001	0
511	1565700	3070.02501	0
511	1567813	3071.00501	0
511	1568576	3071.01001	0
511	1569349	3071.01501	0
511	1570425	3071.02001	0
511	1571055	3071.025396082517	0
511	1571536	3071.030396082517	0
511	1573037	3072.00501	0
511	1573802	3072.01001	0
511	1574422	3072.01501	0
511	1575471	3072.02001	0
511	1576329	3072.02501	0
511	1576939	3072.03001	0
511	1578281	3072.05401207794	0
511	1579378	3072.05901207794	0
511	1579513	3072.06401207794	0
511	1580934	3073.00501	0
511	1581591	3073.01001	0
511	1582217	3073.01501	0
511	1582834	3073.02001	0
511	1583570	3073.02501	0
511	1584623	3073.03001	0
511	1585252	3073.03501	0
511	1586000	3073.04001	0
511	1586671	3073.04501	0
511	1588074	3073.05001	0
511	1588742	3073.05501	0
511	1589528	3073.082348082583	0
511	1590049	3073.087348082583	0
511	1743848	3670.00501	0
511	1744611	3670.01001	0
511	1745516	3670.01501	0
511	1746287	3670.02001	0
511	1748448	3671.00501	0
511	1749077	3671.01001	0
511	1749691	3671.01501	0
511	1750120	3671.02001	0
511	1751033	3671.02501	0
511	1752253	3671.054444082516	0
511	1753084	3671.059444082516	0
511	1753942	3672.00501	0
511	1754576	3672.01001	0
511	1755199	3672.01501	0
511	1755801	3672.02001	0
511	1756514	3672.02501	0
511	1757569	3672.03001	0
511	1758451	3672.03501	0
511	1759199	3672.041884094184	0
511	1759696	3672.046884094184	0
511	1760910	3672.06229210424	0
511	1760914	3672.06729210424	0
511	1761853	3673.00501	0
511	1762507	3673.01001	0
511	1763264	3673.01501	0
511	1763878	3673.02001	0
511	1764934	3673.02501	0
511	1765695	3673.03001	0
511	1766885	3673.03501	0
511	1768464	3673.04001	0
511	1769676	3673.075020110206	0
511	1770291	3673.080020110206	0
511	1770931	3673.085020110206	0
511	1924278	4270.00501	0
511	1925234	4270.01001	0
511	1925854	4270.01501	0
511	1926579	4270.02001	0
511	1927644	4270.02501	0
511	1929206	4271.00501	0
511	1929841	4271.01001	0
511	1930455	4271.01501	0
511	1931202	4271.02001	0
511	1932319	4271.02501	0
511	1932969	4271.03001	0
511	1934262	4272.00501	0
511	1935063	4272.01001	0
511	1935686	4272.01501	0
511	1936288	4272.02001	0
511	1936870	4272.02501	0
511	1937598	4272.03001	0
511	1938655	4272.03501	0
511	1939544	4272.04001	0
511	1940791	4272.047964094185	0
511	1940792	4272.052964094185	0
511	1942951	4273.00501	0
511	1943419	4273.01001	0
511	1944231	4273.01501	0
511	1944845	4273.02001	0
511	1945450	4273.02501	0
511	1946039	4273.03001	0
511	1947319	4273.03501	0
511	1948685	4273.04001	0
511	1949833	4273.04501	0
511	1950632	4273.05001	0
511	1951755	4273.055028143389	0
511	1951756	4273.060028143389	0
511	2105427	4870.00501	0
511	2106062	4870.01001	0
511	2106673	4870.01501	0
511	2107269	4870.02001	0
511	2108000	4870.02501	0
511	2110030	4871.00501	0
511	2110793	4871.01001	0
511	2111698	4871.01501	0
511	2112523	4871.02001	0
511	2113756	4871.02501	0
511	2115260	4872.00501	0
511	2115894	4872.01001	0
511	2116029	4872.01501	0
511	2117116	4872.020356036528	0
511	2117695	4872.025356036528	0