file 212552 1353323439                                          
version 2
run AODVScenario_1f-20-20121119-11:10:21-2188
attr configname AODVScenario_1f
attr datetime 20121119-11:10:21
attr experiment AODVScenario_1f
attr inifile AODV.ini
attr iterationvars $numNodes=70
attr iterationvars2 "$numNodes=70, $repetition=0"
attr measurement $numNodes=70
attr network csma802154net
attr numNodes 70
attr processid 2188
attr repetition 0
attr replication #0
attr resultdir results
attr runnumber 20
attr seedset 20

vector 291  csma802154net.dataCentricNetworkMan  RREQPacketFrequency  ETV
vector 292  csma802154net.dataCentricNetworkMan  RERRPacketFrequency  ETV
vector 293  csma802154net.dataCentricNetworkMan  DiscoveryPacketFrequency  ETV
vector 294  csma802154net.dataCentricNetworkMan  RegisterPacketFrequency  ETV
vector 295  csma802154net.dataCentricNetworkMan  RReplyPacketFrequency  ETV
vector 296  csma802154net.dataCentricNetworkMan  AODVDataPacketFrequency  ETV
vector 303  csma802154net.dataCentricNetworkMan  pendingRegistrationVector  ETV
vector 302  csma802154net.dataCentricNetworkMan  pendingRREQVector  ETV
vector 300  csma802154net.dataCentricNetworkMan  PendingDataPacketsVector  ETV
vector 313  csma802154net.fixhost[9].udpApp  "End-to-end delay"  ETV
vector 288  csma802154net.dataCentricNetworkMan  dataPacketE2EDelay  ETV
vector 317  csma802154net.fixhost[13].udpApp  "End-to-end delay"  ETV
vector 342  csma802154net.fixhost[38].udpApp  "End-to-end delay"  ETV
vector 308  csma802154net.fixhost[4].udpApp  "End-to-end delay"  ETV
vector 312  csma802154net.fixhost[8].udpApp  "End-to-end delay"  ETV
vector 314  csma802154net.fixhost[10].udpApp  "End-to-end delay"  ETV
vector 305  csma802154net.fixhost[1].udpApp  "End-to-end delay"  ETV
vector 323  csma802154net.fixhost[19].udpApp  "End-to-end delay"  ETV
vector 318  csma802154net.fixhost[14].udpApp  "End-to-end delay"  ETV
vector 310  csma802154net.fixhost[6].udpApp  "End-to-end delay"  ETV
vector 311  csma802154net.fixhost[7].udpApp  "End-to-end delay"  ETV
vector 316  csma802154net.fixhost[12].udpApp  "End-to-end delay"  ETV
288	2083 7030 458565 1643529 70.008996019129 7273.042564155558 156 0.00707601913 0.067492124456 4.278299084664 0.1582805247916
291	9113 30344 553 1643705 1.005 7273.05001 1081 0 77 1069 46047
292	39457 30314 553 1643705 1.005 7273.05001 1081 0 0 0 0
293	69771 30314 553 1643705 1.005 7273.05001 1081 0 0 0 0
294	100085 30314 553 1643705 1.005 7273.05001 1081 0 1 12 12
295	130399 30326 553 1643705 1.005 7273.05001 1081 0 77 1152 32466
296	160725 30329 553 1643705 1.005 7273.05001 1081 0 76 1040 27160
300	191054 12697 457930 1643529 70 7273.042564155558 416 0 3 520 1040
302	203751 1191 19359 426052 43.50001 54.534548727297 43 0 1 16 16
303	204942 580 19354 447431 43.5 54.712252211544 24 0 1 12 12
305	205522 589 464615 1638095 72.028356095349 7272.022636069872 13 0.019116069871 0.052324069871 0.381245021705 0.012206324187847
308	206111 583 460188 1634200 71.009316024371 7271.008996024371 13 0.00739602437 0.009636024371 0.11342831682 0.00099559869666772
310	206694 589 468170 1641637 73.027044064494 7273.017836064493 13 0.017836064493 0.067220064494 0.392252838417 0.014341721075564
311	207283 589 468923 1642760 73.042964114775 7273.033364114774 13 0.026116085865 0.053244085865 0.434629231875 0.015152412592294
312	207872 589 461270 1635288 71.020116058035 7271.019724058035 13 0.015316058034 0.048772058036 0.31181275446 0.0088777576163243
313	208461 567 458565 1632577 70.008996019129 7270.00835601913 13 0.00707601913 0.01091601913 0.112468248688 0.00098641475099637
314	209028 589 461641 1635657 71.023276089284 7271.022316089283 13 0.021676089284 0.029284089284 0.329533160683 0.0084392392115021
316	209617 589 469692 1643529 73.056324155559 7273.042564155558 13 0.040364124456 0.067492124456 0.70067774453 0.039156489727143
317	210206 589 458919 1632931 70.014076036442 7270.012796036444 13 0.011196036443 0.015356036444 0.170828473766 0.0022635288191756
318	210795 579 465737 1638462 72.04496408203 7272.024804082029 13 0.022316082029 0.061068082029 0.461261066379 0.018871629545686
323	211374 589 465368 1639603 72.036172114538 7272.036564114537 13 0.034964114536 0.062412114538 0.642253535825 0.032968761393896
342	211963 589 459285 1633297 70.017876053192 7270.017556053194 13 0.014996053193 0.019796053194 0.227908691516 0.0040206471745082
