version 2
run AODVScenario_1f-63-20121121-12:04:32-2864
attr configname AODVScenario_1f
attr datetime 20121121-12:04:32
attr experiment AODVScenario_1f
attr inifile AODV.ini
attr iterationvars $numNodes=113
attr iterationvars2 "$numNodes=113, $repetition=0"
attr measurement $numNodes=113
attr network csma802154net
attr numNodes 113
attr processid 2864
attr repetition 0
attr replication #0
attr resultdir results
attr runnumber 63
attr seedset 63

vector 463  csma802154net.dataCentricNetworkMan  RREQPacketFrequency  ETV
vector 464  csma802154net.dataCentricNetworkMan  RERRPacketFrequency  ETV
vector 465  csma802154net.dataCentricNetworkMan  DiscoveryPacketFrequency  ETV
vector 466  csma802154net.dataCentricNetworkMan  RegisterPacketFrequency  ETV
vector 467  csma802154net.dataCentricNetworkMan  RReplyPacketFrequency  ETV
vector 468  csma802154net.dataCentricNetworkMan  AODVDataPacketFrequency  ETV
vector 475  csma802154net.dataCentricNetworkMan  pendingRegistrationVector  ETV
vector 474  csma802154net.dataCentricNetworkMan  pendingRREQVector  ETV
vector 472  csma802154net.dataCentricNetworkMan  PendingDataPacketsVector  ETV
vector 478  csma802154net.fixhost[2].udpApp  "End-to-end delay"  ETV
vector 460  csma802154net.dataCentricNetworkMan  dataPacketE2EDelay  ETV
vector 481  csma802154net.fixhost[5].udpApp  "End-to-end delay"  ETV
vector 497  csma802154net.fixhost[21].udpApp  "End-to-end delay"  ETV
vector 503  csma802154net.fixhost[27].udpApp  "End-to-end delay"  ETV
vector 512  csma802154net.fixhost[36].udpApp  "End-to-end delay"  ETV
vector 488  csma802154net.fixhost[12].udpApp  "End-to-end delay"  ETV
vector 489  csma802154net.fixhost[13].udpApp  "End-to-end delay"  ETV
vector 495  csma802154net.fixhost[19].udpApp  "End-to-end delay"  ETV
vector 483  csma802154net.fixhost[7].udpApp  "End-to-end delay"  ETV
vector 491  csma802154net.fixhost[15].udpApp  "End-to-end delay"  ETV
460	1434970	70.007076021465	0.007076021465
460	1436132	70.014996059057	0.014996059057
460	1438774	71.01691605632	0.01691605632
460	1439946	71.027044085251	0.027044085251
460	1441952	71.060780108761	0.060780108761
460	1445048	72.021356070803	0.021356070803
460	1446200	72.028604102928	0.028604102928
460	1447934	72.041324145868	0.041324145868
460	1453039	73.031484093328	0.031484093328
460	1454783	73.058924138513	0.058924138513
460	1594204	670.009636021467	0.009636021467
460	1595367	670.01819605906	0.01819605906
460	1598578	671.021996085251	0.021996085251
460	1599741	671.029564108761	0.029564108761
460	1600333	671.04582005632	0.04582005632
460	1604239	672.023556102928	0.023556102928
460	1605394	672.046244070803	0.046244070803
460	1607135	672.056684145868	0.056684145868
460	1610816	673.024516093328	0.024516093328
460	1613132	673.040364138513	0.040364138513
460	1752554	1270.012836021467	0.012836021467
460	1753716	1270.02139605906	0.02139605906
460	1756357	1271.026836056319	0.026836056319
460	1758095	1271.03632408525	0.03632408525
460	1758687	1271.03916410876	0.03916410876
460	1762386	1272.020716070803	0.020716070803
460	1763539	1272.032124102928	0.032124102928
460	1765272	1272.044524145868	0.044524145868
460	1769491	1273.024516093328	0.024516093328
460	1771253	1273.036204138512	0.036204138512
460	1910788	1870.010916021467	0.010916021467
460	1911950	1870.01979605906	0.01979605906
460	1914592	1871.01787605632	0.01787605632
460	1915761	1871.027044085251	0.027044085251
460	1916921	1871.03628410876	0.03628410876
460	1920249	1872.022636070803	0.022636070803
460	1921409	1872.050044102928	0.050044102928
460	1923136	1872.060524145867	0.060524145867
460	1927945	1873.023556093327	0.023556093327
460	1929707	1873.035636138512	0.035636138512
460	2069709	2470.007396021467	0.007396021467
460	2070872	2470.01531605906	0.01531605906
460	2074653	2471.023876108761	0.023876108761
460	2075238	2471.02697208525	0.02697208525
460	2075837	2471.03149205632	0.03149205632
460	2078950	2472.022316070803	0.022316070803
460	2080107	2472.032764102927	0.032764102927
460	2081841	2472.045092145867	0.045092145867
460	2086078	2473.027716093328	0.027716093328
460	2087839	2473.039724138513	0.039724138513
460	2227261	3070.011876021467	0.011876021467
460	2228424	3070.02651605906	0.02651605906
460	2231066	3071.018516056319	0.018516056319
460	2232238	3071.029604085251	0.029604085251
460	2233392	3071.035004108761	0.035004108761
460	2236720	3072.020076070802	0.020076070802
460	2238390	3072.050364102927	0.050364102927
460	2239564	3072.057324145867	0.057324145867
460	2244201	3073.025796093327	0.025796093327
460	2245529	3073.03435613851	0.03435613851
460	2385644	3670.007716021466	0.007716021466
460	2386807	3670.018196059059	0.018196059059
460	2389683	3671.019796056319	0.019796056319
460	2390860	3671.04784408525	0.04784408525
460	2392020	3671.05861210876	0.05861210876
460	2395678	3672.027684070803	0.027684070803
460	2396835	3672.034364102928	0.034364102928
460	2398009	3672.040684145868	0.040684145868
460	2403127	3673.032764093325	0.032764093325
460	2404290	3673.06084413851	0.06084413851
460	2543711	4270.007076021467	0.007076021467
460	2544874	4270.01531605906	0.01531605906
460	2548084	4271.022316085251	0.022316085251
460	2549510	4271.03084410876	0.03084410876
460	2550691	4271.05133205632	0.05133205632
460	2554034	4272.021036070801	0.021036070801
460	2555757	4272.049972102925	0.049972102925
460	2557787	4272.083740145866	0.083740145866
460	2561464	4273.026436093325	0.026436093325
460	2563787	4273.042924138511	0.042924138511
460	2703208	4870.008356021466	0.008356021466
460	2704371	4870.017236059059	0.017236059059
460	2707247	4871.01819605632	0.01819605632
460	2708425	4871.047844085251	0.047844085251
460	2709584	4871.05669210876	0.05669210876
460	2712680	4872.021036070803	0.021036070803
460	2713837	4872.032124102928	0.032124102928
460	2715571	4872.047332145868	0.047332145868
460	2719253	4873.027716093328	0.027716093328
460	2721568	4873.042924138513	0.042924138513
460	2861103	5470.011236021466	0.011236021466
460	2862265	5470.020756059059	0.020756059059
460	2865481	5471.02036405632	0.02036405632
460	2866079	5471.022636085251	0.022636085251
460	2867239	5471.031164108761	0.031164108761
460	2871120	5472.028036102926	0.028036102926
460	2871723	5472.033372070801	0.033372070801
460	2873469	5472.062124145866	0.062124145866
460	2878289	5473.027644093328	0.027644093328
460	2879451	5473.035316138513	0.035316138513
460	3019453	6070.007076021467	0.007076021467
460	3020616	6070.017236059059	0.017236059059
460	3023492	6071.01787605632	0.01787605632
460	3025239	6071.049052085251	0.049052085251
460	3025828	6071.051324108761	0.051324108761
460	3030027	6072.027324102926	0.027324102926
460	3031204	6072.033716145867	0.033716145867
460	3031775	6072.036004070802	0.036004070802
460	3036648	6073.028356093328	0.028356093328
460	3038098	6073.058924138513	0.058924138513
460	3177519	6670.008996021467	0.008996021467
460	3178682	6670.01723605906	0.01723605906
460	3181557	6671.01499605632	0.01499605632
460	3182733	6671.04208408525	0.04208408525
460	3185582	6671.10038810876	0.10038810876
460	3189237	6672.026156070803	0.026156070803
460	3190985	6672.036276145868	0.036276145868
460	3192386	6672.065828102927	0.065828102927
460	3197532	6673.036284093328	0.036284093328
460	3199281	6673.067492138513	0.067492138513
460	3338815	7270.009636021467	0.009636021467
460	3339978	7270.01851605906	0.01851605906
460	3342618	7271.01403605632	0.01403605632
460	3344355	7271.022884085251	0.022884085251
460	3344945	7271.025156108761	0.025156108761
460	3348040	7272.020076070803	0.020076070803
460	3350063	7272.052212102927	0.052212102927
460	3351797	7272.066140145867	0.066140145867
460	3356618	7273.028604093327	0.028604093327
460	3357776	7273.036596138511	0.036596138511
463	897	1.005	1
463	907	1.01	0
463	1778	1.017851817274	122
463	3979	1.022851817274	94
463	6004	1.027851817274	61
463	8938	1.032851817274	91
463	11729	1.037851817274	59
463	13983	1.042851817274	62
463	17289	1.047851817274	47
463	19389	1.052851817274	130
463	20987	1.057851817274	106
463	22255	1.062851817274	56
463	23865	1.067851817274	156
463	25055	1.072851817274	69
463	26499	1.077851817274	99
463	27702	1.082851817274	45
463	29237	1.087851817274	148
463	30253	1.092851817274	63
463	30630	1.097851817274	27
463	31649	1.102851817274	62
463	31969	1.107851817274	42
463	31973	1.112851817274	0
463	32779	1.12008219371	70
463	32780	1.12508219371	0
463	33867	1.13349075195	72
463	33868	1.13849075195	0
463	34362	1.147327485436	52
463	34366	1.152327485436	0
463	35337	1.159712463326	104
463	35347	1.164712463326	0
463	36129	1.171817451222	64
463	36641	1.176817451222	57
463	36642	1.181817451222	0
463	37284	1.192335775781	58
463	37662	1.197335775781	54
463	37663	1.202335775781	0
463	47495	43.505	1
463	48109	43.51	49
463	50304	43.515	0
463	52048	43.52	0
463	53521	43.525	0
463	55206	43.53	0
463	56805	43.535	0
463	58482	43.54	0
463	59922	43.545	0
463	61395	43.550852374299	0
463	62456	43.555852374299	0
463	67147	43.571661326078	0
463	68721	43.576661326078	0
463	69551	43.581661326078	0
463	70368	43.586661326078	0
463	71333	43.591661326078	0
463	73541	43.598764120123	0
463	75085	43.603764120123	0
463	76398	43.610438776199	0
463	77981	43.615438776199	0
463	79912	43.623753082433	0
463	81487	43.628753082433	0
463	82982	43.635307913265	0
463	84216	43.640307913265	0
463	85636	43.645307913265	0
463	87125	43.650307913265	0
463	88157	43.655307913265	0
463	90048	43.662956529274	0
463	91113	43.667956529274	0
463	93389	43.676943163887	0
463	94589	43.681943163887	0
463	98511	43.702088684775	0
463	99878	43.707088684775	0
463	101058	43.712088684775	0
463	102396	43.717088684775	0
463	103482	43.722088684775	0
463	104445	43.727088684775	0
463	108683	43.747922039201	0
463	109525	43.752922039201	0
463	110599	43.757922039201	0
463	111987	43.763135184763	0
463	113267	43.768135184763	0
463	114462	43.773225267942	0
463	115601	43.778225267942	0
463	116638	43.783225267942	0
463	117626	43.788225267942	0
463	118931	43.793225267942	0
463	120082	43.798225267942	0
463	121556	43.803225267942	0
463	122727	43.808225267942	0
463	123448	43.813225267942	0
463	125218	43.823359146996	0
463	126664	43.828359146996	0
463	128327	43.836445149666	0
463	129456	43.841445149666	0
463	130399	43.846445149666	0
463	131481	43.851445149666	0
463	132511	43.856445149666	0
463	133871	43.863354707188	0
463	134573	43.868354707188	0
463	135736	43.873354707188	0
463	136442	43.878354707188	0
463	137619	43.883608762854	0
463	139021	43.888608762854	0
463	139599	43.893608762854	0
463	139995	43.898608762854	0
463	141451	43.910125043311	0
463	142110	43.915125043311	0
463	143734	43.92676756174	0
463	144882	43.93176756174	0
463	145720	43.93676756174	0
463	147045	43.94176756174	0
463	147971	43.94676756174	0
463	148790	43.95176756174	0
463	149686	43.95676756174	0
463	151175	43.966788056771	0
463	151861	43.971788056771	0
463	152281	43.976788056771	0
463	152978	43.981788056771	0
463	153701	43.986788056771	0
463	154496	43.991788056771	0
463	155173	43.996788056771	0
463	156373	44.00498052052	0
463	156374	44.00998052052	0
463	158866	44.034938039135	0
463	159448	44.039938039135	0
463	160107	44.047097226845	0
463	160564	44.052097226845	0
463	160565	44.057097226845	0
463	160572	44.505	1
463	160579	44.51	0
463	162992	44.518875848909	62
463	165843	44.523875848909	0
463	167900	44.528875848909	0
463	170819	44.538709775451	0
463	172732	44.543709775451	0
463	174035	44.548709775451	0
463	175123	44.553709775451	0
463	177664	44.561051502326	0
463	178930	44.566051502326	0
463	184257	44.58550677557	0
463	185248	44.59050677557	0
463	187843	44.603142008124	0
463	189715	44.608142008124	0
463	190789	44.613142008124	0
463	192539	44.61822203095	0
463	193879	44.62322203095	0
463	194743	44.62822203095	0
463	197568	44.638860881493	0
463	198670	44.643860881493	0
463	200535	44.648860881493	0
463	202718	44.658725252677	0
463	204079	44.663725252677	0
463	205462	44.668725252677	0
463	206654	44.673725252677	0
463	207990	44.678725252677	0
463	209197	44.683725252677	0
463	211162	44.689570874237	0
463	212334	44.694570874237	0
463	213714	44.699762166662	0
463	215321	44.704762166662	0
463	216363	44.709762166662	0
463	217472	44.714762166662	0
463	219280	44.719762166662	0
463	220721	44.724762166662	0
463	222317	44.729762166662	0
463	223458	44.734762166662	0
463	225570	44.741703659052	0
463	227200	44.746703659052	0
463	228299	44.751703659052	0
463	230085	44.757238158988	0
463	231501	44.762238158988	0
463	232627	44.767238158988	0
463	233911	44.772238158988	0
463	235096	44.777238158988	0
463	237131	44.785213271417	0
463	238616	44.790213271417	0
463	240554	44.798281522837	0
463	242503	44.803281522837	0
463	243488	44.808281522837	0
463	244574	44.813281522837	0
463	246258	44.818281522837	0
463	247191	44.823281522837	0
463	249615	44.832017437971	0
463	250797	44.837017437971	0
463	253401	44.846957255062	0
463	254781	44.851957255062	0
463	256486	44.856957255062	0
463	258331	44.861957255062	0
463	259781	44.866957255062	0
463	261549	44.87527746853	0
463	263070	44.88027746853	0
463	264310	44.88527746853	0
463	265281	44.89027746853	0
463	266732	44.89527746853	0
463	272372	44.917815481085	0
463	273703	44.922815481085	0
463	274551	44.927815481085	0
463	275835	44.932815481085	0
463	276672	44.937815481085	0
463	277780	44.942864580372	0
463	278610	44.947864580372	0
463	280119	44.955003594124	0
463	281191	44.960003594124	0
463	282813	44.968871067165	0
463	283641	44.973871067165	0
463	284775	44.978871067165	0
463	285783	44.983871067165	0
463	287127	44.988871067165	0
463	288085	44.993871067165	0
463	289626	45.00293494143	0
463	290889	45.00793494143	0
463	291861	45.01293494143	0
463	292456	45.01793494143	0
463	293259	45.02293494143	0
463	294114	45.02793494143	0
463	294120	45.03293494143	0
463	294946	45.040096229923	0
463	295889	45.045096229923	0
463	298658	45.063256282328	0
463	299328	45.068256282328	0
463	299629	45.074235855415	0
463	299880	45.079235855415	0
463	301452	45.093076939055	0
463	302483	45.098076939055	0
463	302615	45.103076939055	0
463	304301	45.11512495669	0
463	305286	45.12012495669	0
463	305877	45.129548271276	0
463	306588	45.134548271276	0
463	307063	45.139548271276	0
463	307749	45.144548271276	0
463	309019	45.505	1
463	310217	45.51	64
463	312967	45.515	0
463	314699	45.52	0
463	316241	45.525	0
463	321824	45.541122467155	0
463	323822	45.546122467155	0
463	325419	45.551122467155	0
463	326827	45.556122467155	0
463	328073	45.561122467155	0
463	330779	45.570432291803	0
463	332065	45.575432291803	0
463	333881	45.580432291803	0
463	335375	45.585432291803	0
463	337865	45.594544316993	0
463	338707	45.599544316993	0
463	341482	45.608411037368	0
463	342834	45.613411037368	0
463	344364	45.618578230853	0
463	345844	45.623578230853	0
463	348448	45.632159835724	0
463	349891	45.637159835724	0
463	351573	45.644546087441	0
463	352820	45.649546087441	0
463	353790	45.654546087441	0
463	358779	45.67331505188	0
463	359897	45.67831505188	0
463	361488	45.68331505188	0
463	363334	45.68831505188	0
463	364843	45.694970102562	0
463	366276	45.699970102562	0
463	368013	45.705256558443	0
463	368978	45.710256558443	0
463	372464	45.72345821854	0
463	373809	45.72845821854	0
463	375895	45.736320260527	0
463	377545	45.741320260527	0
463	378609	45.746320260527	0
463	380345	45.751320260527	0
463	381326	45.756320260527	0
463	384047	45.766334664511	0
463	385513	45.771334664511	0
463	387541	45.777906419006	0
463	389192	45.782906419006	0
463	390939	45.787906419006	0
463	391892	45.792906419006	0
463	393501	45.797906419006	0
463	394967	45.802906419006	0
463	396416	45.807906419006	0
463	397691	45.812906419006	0
463	398545	45.817906419006	0
463	400307	45.822906419006	0
463	401545	45.827906419006	0
463	402933	45.832906419006	0
463	404852	45.840900553276	0
463	405711	45.845900553276	0
463	408781	45.858461588391	0
463	410270	45.863461588391	0
463	411371	45.868461588391	0
463	412734	45.873461588391	0
463	414570	45.879408404438	0
463	415400	45.884408404438	0
463	416788	45.889408404438	0
463	418470	45.894408404438	0
463	419703	45.899408404438	0
463	421173	45.904408404438	0
463	422496	45.909408404438	0
463	424625	45.922414073291	0
463	425440	45.927414073291	0
463	426404	45.932414073291	0
463	427732	45.938420371979	0
463	428657	45.943420371979	0
463	429840	45.948524580283	0
463	431157	45.953524580283	0
463	432527	45.958524580283	0
463	433690	45.963524580283	0
463	434919	45.968524580283	0
463	436200	45.975018627097	0
463	436789	45.980018627097	0
463	438210	45.985018627097	0
463	441335	45.997668871925	0
463	442378	46.002668871925	0
463	443339	46.009422244263	0
463	444307	46.014422244263	0
463	445003	46.019422244263	0
463	447233	46.030515474969	0
463	448470	46.035515474969	0
463	449346	46.040515474969	0
463	450158	46.045515474969	0
463	451324	46.050515474969	0
463	452467	46.055515474969	0
463	453694	46.060515474969	0
463	454825	46.065515474969	0
463	456158	46.070515474969	0
463	457202	46.075515474969	0
463	457923	46.080515474969	0
463	459050	46.085515474969	0
463	460017	46.090515474969	0
463	461158	46.095515474969	0
463	461941	46.100515474969	0
463	462937	46.107334725985	0
463	464193	46.112334725985	0
463	465010	46.117334725985	0
463	466172	46.125169636806	0
463	466296	46.130169636806	0
463	468404	46.149314482357	0
463	468964	46.154314482357	0
463	468965	46.159314482357	0
463	470651	46.189790244263	0
463	470652	46.194790244263	0
463	471784	46.505	1
463	471794	46.51	0
463	474819	46.517251419277	52
463	477698	46.522251419277	0
463	479291	46.527251419277	0
463	481224	46.534520309856	0
463	481971	46.539520309856	0
463	483897	46.544520309856	0
463	485761	46.549520309856	0
463	488394	46.557628885766	0
463	490072	46.562628885766	0
463	491341	46.567628885766	0
463	495128	46.579397396582	0
463	496452	46.584397396582	0
463	497558	46.589397396582	0
463	498731	46.594397396582	0
463	500486	46.599397396582	0
463	501574	46.604397396582	0
463	504155	46.613801755893	0
463	505454	46.618801755893	0
463	511470	46.639595123962	0
463	513012	46.644595123962	0
463	514194	46.649595123962	0
463	519766	46.671534508137	0
463	520629	46.676534508137	0
463	525310	46.693142205072	0
463	525988	46.698142205072	0
463	527779	46.703764529703	0
463	528879	46.708764529703	0
463	530446	46.716089053309	0
463	531811	46.721089053309	0
463	533579	46.726089053309	0
463	534682	46.731089053309	0
463	536355	46.736089053309	0
463	537335	46.741089053309	0
463	538439	46.746089053309	0
463	540214	46.751764018556	0
463	541465	46.756764018556	0
463	542703	46.761764018556	0
463	544936	46.76949453984	0
463	546166	46.77449453984	0
463	547060	46.77949453984	0
463	548798	46.78449453984	0
463	549971	46.78949453984	0
463	551842	46.79449453984	0
463	552945	46.79949453984	0
463	554249	46.80449453984	0
463	555535	46.80949453984	0
463	558441	46.821141449534	0
463	559862	46.826141449534	0
463	560774	46.831141449534	0
463	562767	46.836141449534	0
463	563886	46.841141449534	0
463	565127	46.846141449534	0
463	566212	46.851141449534	0
463	568508	46.858314736307	0
463	570029	46.863314736307	0
463	571155	46.870189434069	0
463	572272	46.875189434069	0
463	575503	46.887068395946	0
463	576874	46.892068395946	0
463	577570	46.897068395946	0
463	578509	46.902068395946	0
463	581621	46.914570499563	0
463	582310	46.919570499563	0
463	583267	46.924570499563	0
463	584846	46.929570499563	0
463	586904	46.937139998528	0
463	588484	46.942139998528	0
463	589423	46.947139998528	0
463	590513	46.952139998528	0
463	591197	46.957139998528	0
463	594613	46.97277275777	0
463	595344	46.97777275777	0
463	596294	46.98277275777	0
463	597407	46.98777275777	0
463	598900	46.99277275777	0
463	599488	46.99777275777	0
463	600653	47.00277275777	0
463	601795	47.00781852215	0
463	602488	47.01281852215	0
463	603474	47.022666763719	0
463	604188	47.027666763719	0
463	605341	47.032666763719	0
463	606289	47.037666763719	0
463	608831	47.053669501473	0
463	609645	47.058669501473	0
463	611056	47.071765981987	0
463	611507	47.076765981987	0
463	612180	47.112377156928	0
463	612646	47.117377156928	0
463	612647	47.122377156928	0
463	612663	47.505	1
463	613756	47.51	47
463	616534	47.515	0
463	618529	47.52	0
463	620188	47.525	0
463	621562	47.53	0
463	622253	47.535	0
463	624079	47.540717944266	0
463	625578	47.545717944266	0
463	626579	47.550717944266	0
463	628156	47.556053165929	0
463	628971	47.561053165929	0
463	631604	47.571659640023	0
463	632944	47.576659640023	0
463	633938	47.581659640023	0
463	636777	47.593755493516	0
463	637938	47.598755493516	0
463	638512	47.603755493516	0
463	639546	47.609005220502	0
463	640175	47.614005220502	0
463	641110	47.619005220502	0
463	641958	47.624005220502	0
463	643368	47.629061499393	0
463	645252	47.634061499393	0
463	647302	47.64082239956	0
463	648111	47.64582239956	0
463	649539	47.651395499885	0
463	650904	47.656395499885	0
463	651785	47.661395499885	0
463	653035	47.666395499885	0
463	654266	47.671395499885	0
463	655493	47.676395499885	0
463	657423	47.684680753659	0
463	658545	47.689680753659	0
463	659560	47.694680753659	0
463	660931	47.699680753659	0
463	662306	47.706140205426	0
463	663478	47.711140205426	0
463	664426	47.716140205426	0
463	665312	47.721140205426	0
463	670673	47.741526020312	0
463	671710	47.746526020312	0
463	672804	47.751526020312	0
463	674351	47.756526020312	0
463	675683	47.761526020312	0
463	676847	47.766647151549	0
463	677791	47.771647151549	0
463	679073	47.778894842196	0
463	680498	47.783894842196	0
463	681236	47.788894842196	0
463	683021	47.796273382875	0
463	683863	47.801273382875	0
463	684660	47.806273382875	0
463	685638	47.811273382875	0
463	687542	47.820034381278	0
463	688467	47.825034381278	0
463	689899	47.830034381278	0
463	690953	47.835034381278	0
463	692092	47.840034381278	0
463	693218	47.845034381278	0
463	693908	47.850034381278	0
463	697606	47.865302786842	0
463	698804	47.870302786842	0
463	699663	47.875302786842	0
463	700475	47.880302786842	0
463	702252	47.891126883645	0
463	703294	47.896126883645	0
463	703848	47.902727968809	0
463	704487	47.907727968809	0
463	705416	47.913025878502	0
463	706139	47.918025878502	0
463	707183	47.923025878502	0
463	708172	47.928025878502	0
463	708842	47.933025878502	0
463	710092	47.938025878502	0
463	710682	47.943025878502	0
463	711483	47.949818671222	0
463	712339	47.954818671222	0
463	712471	47.959818671222	0
463	713759	47.966028173229	0
463	714290	47.971028173229	0
463	714702	47.976313348236	0
463	714961	47.981313348236	0
463	715426	47.987148418936	0
463	716258	47.992148418936	0
463	716264	47.997148418936	0
463	717065	48.002148418936	0
463	718370	48.012105923805	0
463	719059	48.017105923805	0
463	719656	48.0256059829	0
463	719657	48.0306059829	0
463	720218	48.042643892423	0
463	720219	48.047643892423	0
463	720232	48.505	1
463	720788	48.51	40
463	722759	48.515	0
463	724345	48.52	0
463	725754	48.525	0
463	726938	48.53	0
463	728399	48.535	0
463	730249	48.542655570439	0
463	730935	48.547655570439	0
463	731930	48.552655570439	0
463	732893	48.557655570439	0
463	734020	48.562655570439	0
463	735064	48.567655570439	0
463	736725	48.573892252849	0
463	737947	48.578892252849	0
463	738929	48.583892252849	0
463	739916	48.588892252849	0
463	740924	48.593892252849	0
463	742270	48.598892252849	0
463	744651	48.611259458442	0
463	745693	48.616259458442	0
463	747341	48.621795958874	0
463	748407	48.626795958874	0
463	749486	48.631795958874	0
463	750493	48.636795958874	0
463	751154	48.641795958874	0
463	752173	48.64701074469	0
463	753291	48.65201074469	0
463	754119	48.65701074469	0
463	755144	48.66201074469	0
463	756344	48.66701074469	0
463	757212	48.67201074469	0
463	758688	48.67701074469	0
463	759433	48.68201074469	0
463	760330	48.68701074469	0
463	761169	48.69201074469	0
463	762804	48.69701074469	0
463	763851	48.70201074469	0
463	765356	48.707115926962	0
463	766319	48.712115926962	0
463	767147	48.717115926962	0
463	768392	48.722115926962	0
463	769867	48.727115926962	0
463	770715	48.732115926962	0
463	772025	48.737115926962	0
463	775486	48.756792378683	0
463	776489	48.761792378683	0
463	778744	48.773603585366	0
463	779996	48.778603585366	0
463	781435	48.787029486746	0
463	782018	48.792029486746	0
463	783232	48.797029486746	0
463	783783	48.802029486746	0
463	785133	48.807392374361	0
463	786134	48.812392374361	0
463	786397	48.817392374361	0
463	787505	48.822553532703	0
463	788595	48.827553532703	0
463	790327	48.836372066429	0
463	791066	48.841372066429	0
463	791616	48.846372066429	0
463	792723	48.851384411536	0
463	793173	48.856384411536	0
463	793998	48.865692765227	0
463	794699	48.870692765227	0
463	795732	48.875692765227	0
463	796438	48.880692765227	0
463	796879	48.885692765227	0
463	797464	48.897378866277	0
463	798021	48.902378866277	0
463	798144	48.907378866277	0
463	798840	48.913470114167	0
463	799545	48.918470114167	0
463	800110	48.923806101441	0
463	800862	48.928806101441	0
463	801124	48.933806101441	0
463	802279	48.965997380289	0
463	802402	48.970997380289	0
463	803433	48.977725326807	0
463	803434	48.982725326807	0
463	804235	49.042341394659	0
463	804236	49.047341394659	0
463	804292	49.505	1
463	804955	49.51	58
463	807201	49.515	0
463	809414	49.52	0
463	811358	49.525	0
463	812993	49.53	0
463	814935	49.536962121422	0
463	816913	49.541962121422	0
463	818824	49.547737843906	0
463	820456	49.552737843906	0
463	822067	49.557737843906	0
463	823150	49.562737843906	0
463	824856	49.567737843906	0
463	826446	49.572737843906	0
463	828006	49.577737843906	0
463	830410	49.582737843906	0
463	832168	49.587737843906	0
463	834421	49.595084229007	0
463	835595	49.600084229007	0
463	837701	49.606112767811	0
463	839319	49.611112767811	0
463	841224	49.616112767811	0
463	844835	49.629020589366	0
463	846467	49.634020589366	0
463	847640	49.639020589366	0
463	854006	49.660714320193	0
463	855645	49.665714320193	0
463	863182	49.691996679286	0
463	864764	49.696996679286	0
463	866247	49.701996679286	0
463	867963	49.706996679286	0
463	869418	49.711996679286	0
463	871318	49.717667398428	0
463	873202	49.722667398428	0
463	874601	49.728035045477	0
463	876125	49.733035045477	0
463	878054	49.738035045477	0
463	879532	49.743035045477	0
463	880566	49.748035045477	0
463	882115	49.753035045477	0
463	883743	49.758035045477	0
463	886705	49.767165026239	0
463	888382	49.772165026239	0
463	889661	49.777165026239	0
463	891589	49.782165026239	0
463	893496	49.787165026239	0
463	894723	49.792165026239	0
463	897967	49.803833288513	0
463	899218	49.808833288513	0
463	901217	49.815517401198	0
463	902752	49.820517401198	0
463	904357	49.825517401198	0
463	905488	49.830517401198	0
463	906335	49.835517401198	0
463	907834	49.841206006533	0
463	909101	49.846206006533	0
463	910352	49.851206006533	0
463	912515	49.862274239634	0
463	913687	49.867274239634	0
463	914630	49.872274239634	0
463	916382	49.877659896389	0
463	917812	49.882659896389	0
463	918983	49.887659896389	0
463	923003	49.902466614913	0
463	923934	49.907466614913	0
463	925155	49.912466614913	0
463	926669	49.917466614913	0
463	928313	49.922466614913	0
463	930653	49.9311640289	0
463	931865	49.9361640289	0
463	932988	49.9411640289	0
463	935095	49.948978482391	0
463	936076	49.953978482391	0
463	937199	49.958978482391	0
463	938804	49.963978482391	0
463	940344	49.971115903191	0
463	941347	49.976115903191	0
463	941599	49.981115903191	0
463	942905	49.986115903191	0
463	944013	49.991115903191	0
463	944729	49.996115903191	0
463	946579	50.001115903191	0
463	947532	50.006115903191	0
463	948745	50.011115903191	0
463	949431	50.016115903191	0
463	949716	50.021115903191	0
463	950248	50.026115903191	0
463	951100	50.031115903191	0
463	951891	50.036115903191	0
463	952580	50.043082690202	0
463	953066	50.048082690202	0
463	953067	50.053082690202	0
463	954157	50.062986134228	0
463	954735	50.067986134228	0
463	955846	50.072986134228	0
463	955847	50.077986134228	0
463	956672	50.098018326335	0
463	957258	50.103018326335	0
463	957902	50.192882220777	0
463	957903	50.197882220777	0
463	957910	50.505	1
463	957920	50.51	0
463	960961	50.518189658068	49
463	963028	50.523189658068	0
463	964571	50.528189658068	0
463	966083	50.533189658068	0
463	968111	50.539597212891	0
463	969535	50.544597212891	0
463	971842	50.549597212891	0
463	973676	50.554597212891	0
463	975172	50.559597212891	0
463	977260	50.569212551183	0
463	979001	50.574212551183	0
463	981618	50.585019235673	0
463	983282	50.590019235673	0
463	985571	50.597722706313	0
463	986684	50.602722706313	0
463	989219	50.610614512789	0
463	990662	50.615614512789	0
463	992997	50.62135371471	0
463	994639	50.62635371471	0
463	997337	50.634443510977	0
463	999220	50.639443510977	0
463	1000723	50.644443510977	0
463	1001692	50.649443510977	0
463	1003430	50.654443510977	0
463	1009985	50.678682478424	0
463	1011618	50.683682478424	0
463	1014060	50.690729896126	0
463	1016000	50.695729896126	0
463	1017799	50.701585512878	0
463	1018883	50.706585512878	0
463	1019856	50.711585512878	0
463	1021684	50.716619686277	0
463	1023473	50.721619686277	0
463	1025059	50.726619686277	0
463	1027199	50.734915527047	0
463	1028452	50.739915527047	0
463	1030517	50.746780262224	0
463	1031612	50.751780262224	0
463	1035387	50.764969228483	0
463	1036268	50.769969228483	0
463	1037334	50.774969228483	0
463	1039341	50.779969228483	0
463	1040557	50.784969228483	0
463	1041811	50.789969228483	0
463	1043292	50.794969228483	0
463	1044799	50.799969228483	0
463	1046255	50.804969228483	0
463	1049309	50.817546563721	0
463	1050941	50.822546563721	0
463	1052673	50.82929507301	0
463	1054692	50.83429507301	0
463	1056232	50.83929507301	0
463	1057159	50.84429507301	0
463	1058955	50.85025894448	0
463	1060420	50.85525894448	0
463	1063161	50.865641538472	0
463	1064312	50.870641538472	0
463	1065452	50.875641538472	0
463	1066299	50.880641538472	0
463	1067452	50.885673047866	0
463	1068658	50.890673047866	0
463	1069622	50.895673047866	0
463	1070362	50.900673047866	0
463	1071563	50.905673047866	0
463	1072405	50.910673047866	0
463	1073237	50.915673047866	0
463	1075637	50.926804880145	0
463	1076839	50.931804880145	0
463	1077791	50.936804880145	0
463	1078928	50.941804880145	0
463	1080490	50.949657711514	0
463	1081282	50.954657711514	0
463	1082621	50.9597156421	0
463	1083467	50.9647156421	0
463	1084326	50.9697156421	0
463	1085512	50.9747156421	0
463	1086795	50.9797156421	0
463	1087350	50.9847156421	0
463	1089983	51.002633117935	0
463	1090590	51.007633117935	0