version 2
run AODVScenario_1f-9-20121119-11:06:45-3248
attr configname AODVScenario_1f
attr datetime 20121119-11:06:45
attr experiment AODVScenario_1f
attr inifile AODV.ini
attr iterationvars $numNodes=59
attr iterationvars2 "$numNodes=59, $repetition=0"
attr measurement $numNodes=59
attr network csma802154net
attr numNodes 59
attr processid 3248
attr repetition 0
attr replication #0
attr resultdir results
attr runnumber 9
attr seedset 9

vector 247  csma802154net.dataCentricNetworkMan  RREQPacketFrequency  ETV
vector 248  csma802154net.dataCentricNetworkMan  RERRPacketFrequency  ETV
vector 249  csma802154net.dataCentricNetworkMan  DiscoveryPacketFrequency  ETV
vector 250  csma802154net.dataCentricNetworkMan  RegisterPacketFrequency  ETV
vector 251  csma802154net.dataCentricNetworkMan  RReplyPacketFrequency  ETV
vector 252  csma802154net.dataCentricNetworkMan  AODVDataPacketFrequency  ETV
vector 259  csma802154net.dataCentricNetworkMan  pendingRegistrationVector  ETV
vector 258  csma802154net.dataCentricNetworkMan  pendingRREQVector  ETV
vector 256  csma802154net.dataCentricNetworkMan  PendingDataPacketsVector  ETV
vector 272  csma802154net.fixhost[12].udpApp  "End-to-end delay"  ETV
vector 244  csma802154net.dataCentricNetworkMan  dataPacketE2EDelay  ETV
vector 276  csma802154net.fixhost[16].udpApp  "End-to-end delay"  ETV
vector 270  csma802154net.fixhost[10].udpApp  "End-to-end delay"  ETV
vector 264  csma802154net.fixhost[4].udpApp  "End-to-end delay"  ETV
vector 278  csma802154net.fixhost[18].udpApp  "End-to-end delay"  ETV
vector 262  csma802154net.fixhost[2].udpApp  "End-to-end delay"  ETV
vector 263  csma802154net.fixhost[3].udpApp  "End-to-end delay"  ETV
vector 266  csma802154net.fixhost[6].udpApp  "End-to-end delay"  ETV
vector 275  csma802154net.fixhost[15].udpApp  "End-to-end delay"  ETV
vector 273  csma802154net.fixhost[13].udpApp  "End-to-end delay"  ETV
vector 279  csma802154net.fixhost[19].udpApp  "End-to-end delay"  ETV
244	348738	70.100076076679	0.100076076679
244	349400	70.131004102685	0.131004102685
244	349704	70.13339605129	0.13339605129
244	350474	71.007396023634	0.007396023634
244	350796	71.011836045388	0.011836045388
244	353063	72.049796076482	0.049796076482
244	354034	72.072724119526	0.072724119526
244	354665	72.086724164071	0.086724164071
244	356443	73.01943607212	0.01943607212
244	356888	73.022284050006	0.022284050006
244	357556	73.052852096157	0.052852096157
244	431078	670.02171605129	0.02171605129
244	432063	670.034044102685	0.034044102685
244	432387	670.036892076679	0.036892076679
244	433156	671.009956023634	0.009956023634
244	433479	671.015036045388	0.015036045388
244	435735	672.028996086625	0.028996086625
244	436405	672.03685207648	0.03685207648
244	437355	672.060524132606	0.060524132606
244	438802	673.021396050006	0.021396050006
244	439795	673.038204098643	0.038204098643
244	440115	673.043924129026	0.043924129026
244	514054	1270.021676076679	0.021676076679
244	514772	1270.029244102685	0.029244102685
244	515407	1270.05005205129	0.05005205129
244	516178	1271.011876023634	0.011876023634
244	516500	1271.016956045388	0.016956045388
244	519096	1272.025156086626	0.025156086626
244	519425	1272.032372076481	0.032372076481
244	520375	1272.058604132607	0.058604132607
244	522287	1273.02583607212	0.02583607212
244	522607	1273.029572050006	0.029572050006
244	523271	1273.054524096157	0.054524096157
244	596855	1870.023316051289	0.023316051289
244	597511	1870.029284076678	0.029284076678
244	598165	1870.039732102684	0.039732102684
244	598928	1871.007396023634	0.007396023634
244	599250	1871.012476045388	0.012476045388
244	601700	1872.028316119527	0.028316119527
244	602682	1872.04032416407	0.04032416407
244	602993	1872.042220076482	0.042220076482
244	604443	1873.018836050006	0.018836050006
244	605110	1873.02608407212	0.02608407212
244	605754	1873.034612096157	0.034612096157
244	679958	2470.028676102685	0.028676102685
244	680266	2470.03149205129	0.03149205129
244	680597	2470.039380076679	0.039380076679
244	681366	2471.008036023634	0.008036023634
244	681688	2471.013436045388	0.013436045388
244	683964	2472.025796076482	0.025796076482
244	685266	2472.055124119526	0.055124119526
244	685896	2472.062084164071	0.062084164071
244	687468	2473.016276050006	0.016276050006
244	688461	2473.048764098644	0.048764098644
244	688780	2473.052564129027	0.052564129027
244	762959	3070.02555605129	0.02555605129
244	763287	3070.027684076679	0.027684076679
244	763616	3070.032764102685	0.032764102685
244	764379	3071.009636023633	0.009636023633
244	764701	3071.013756045387	0.013756045387
244	767296	3072.027964086626	0.027964086626
244	767622	3072.031412076481	0.031412076481
244	768572	3072.058284132607	0.058284132607
244	770144	3073.018836050006	0.018836050006
244	771140	3073.050044098644	0.050044098644
244	771459	3073.054164129027	0.054164129027
244	845039	3670.01595605129	0.01595605129
244	846022	3670.025156102685	0.025156102685
244	846345	3670.028252076679	0.028252076679
244	847114	3671.007396023634	0.007396023634
244	847436	3671.010876045387	0.010876045387
244	849702	3672.025156076482	0.025156076482
244	850676	3672.050324119527	0.050324119527
244	851306	3672.059844164072	0.059844164072
244	853213	3673.023596072119	0.023596072119
244	854191	3673.051004096156	0.051004096156
244	854514	3673.052860050005	0.052860050005
244	928371	4270.019084051289	0.019084051289
244	928841	4270.025444076677	0.025444076677
244	929504	4270.049404102683	0.049404102683
244	930715	4271.008036023633	0.008036023633
244	931037	4271.013436045387	0.013436045387
244	933836	4272.031164076481	0.031164076481
244	934152	4272.039764119526	0.039764119526
244	934782	4272.055044164071	0.055044164071
244	936566	4273.02679607212	0.02679607212
244	937211	4273.031812050004	0.031812050004
244	937691	4273.057652096156	0.057652096156
244	1011542	4870.02043605129	0.02043605129
244	1012532	4870.033692076678	0.033692076678
244	1012861	4870.039412102685	0.039412102685
244	1013624	4871.008996023634	0.008996023634
244	1013946	4871.013116045388	0.013116045388
244	1016747	4872.032052076482	0.032052076482
244	1017059	4872.034324119527	0.034324119527
244	1017689	4872.045124164071	0.045124164071
244	1019261	4873.022676050006	0.022676050006
244	1020062	4873.05264407212	0.05264407212
244	1020711	4873.081332096157	0.081332096157
244	1094614	5470.01627605129	0.01627605129
244	1095274	5470.024164076679	0.024164076679
244	1095603	5470.027964102685	0.027964102685
244	1096366	5471.008356023634	0.008356023634
244	1096688	5471.012476045388	0.012476045388
244	1099139	5472.031196119524	0.031196119524
244	1099813	5472.038452076479	0.038452076479
244	1100437	5472.051132164069	0.051132164069
244	1102010	5473.026196050006	0.026196050006
244	1103007	5473.058684098643	0.058684098643
244	1103326	5473.062804129026	0.062804129026
244	1176848	6070.01595605129	0.01595605129
244	1177504	6070.023844076679	0.023844076679
244	1178159	6070.035324102684	0.035324102684
244	1178922	6071.009636023633	0.009636023633
244	1179245	6071.015036045387	0.015036045387
244	1181525	6072.024516076481	0.024516076481
244	1182492	6072.055052119526	0.055052119526
244	1183122	6072.063292164071	0.063292164071
244	1184903	6073.020044050006	0.020044050006
244	1185570	6073.034364098643	0.034364098643
244	1185889	6073.043604129025	0.043604129025
244	1259412	6670.021396051289	0.021396051289
244	1260075	6670.030564076678	0.030564076678
244	1260726	6670.038452102684	0.038452102684
244	1261489	6671.007396023633	0.007396023633
244	1261811	6671.011196045386	0.011196045386
244	1264281	6672.029564086625	0.029564086625
244	1264751	6672.03525207648	0.03525207648
244	1265701	6672.068060132606	0.068060132606
244	1267484	6673.022316072119	0.022316072119
244	1268128	6673.029244096155	0.029244096155
244	1268457	6673.033412050004	0.033412050004
244	1342718	7270.033156102685	0.033156102685
244	1343041	7270.036324076679	0.036324076679
244	1343355	7270.04141205129	0.04141205129
244	1344125	7271.009316023633	0.009316023633
244	1344447	7271.013116045387	0.013116045387
244	1346912	7272.028036086627	0.028036086627
244	1347388	7272.035324076482	0.035324076482
244	1348655	7272.064932132608	0.064932132608
244	1350105	7273.020116050006	0.020116050006
244	1350896	7273.029284072119	0.029284072119
244	1351545	7273.057012096157	0.057012096157
247	465	1.005	1
247	680	1.01	36
247	1172	1.015	39
247	2099	1.02	51
247	3080	1.025	62
247	4154	1.03	27
247	5172	1.035	31
247	5954	1.04	53
247	6578	1.045	19
247	7214	1.05	50
247	8053	1.055	57
247	8393	1.06	31
247	8583	1.065	13
247	8819	1.07	22
247	9141	1.075	27
247	9335	1.08	28
247	9336	1.085	0
247	9593	1.114664996382	28
247	9902	1.119664996382	23
247	10051	1.124664996382	19
247	10052	1.129664996382	0
247	15180	43.505	1
247	15187	43.51	0
247	16232	43.520527574328	22
247	16967	43.525527574328	0
247	18586	43.542522282676	0
247	19238	43.547522282676	0
247	19749	43.552522282676	0
247	20342	43.557642927674	0
247	20989	43.562642927674	0
247	21500	43.567642927674	0
247	22043	43.572642927674	0
247	22675	43.577642927674	0
247	23309	43.582642927674	0
247	24049	43.587830817238	0
247	24623	43.592830817238	0
247	25111	43.597830817238	0
247	26550	43.614313978151	0
247	27124	43.619313978151	0
247	27937	43.624313978151	0
247	28324	43.629313978151	0
247	28773	43.634313978151	0
247	29408	43.639313978151	0
247	30057	43.644313978151	0
247	30659	43.649313978151	0
247	30943	43.654313978151	0
247	31735	43.663587468612	0
247	32254	43.668587468612	0
247	32676	43.673587468612	0
247	33680	43.683707280401	0
247	34195	43.688707280401	0
247	34679	43.693707280401	0
247	34890	43.698707280401	0
247	35693	43.707591146283	0
247	35904	43.712591146283	0
247	36496	43.722071903167	0
247	36907	43.727071903167	0
247	37490	43.732531289648	0
247	37783	43.737531289648	0
247	38313	43.742531289648	0
247	38745	43.747531289648	0
247	39239	43.752531289648	0
247	39462	43.757531289648	0
247	39463	43.762531289648	0
247	40314	43.777816380529	0
247	40608	43.782816380529	0
247	40905	43.822784390222	0
247	40906	43.827784390222	0
247	41041	44.505	1
247	41493	44.51	22
247	42533	44.515	0
247	43370	44.52	0
247	44189	44.525	0
247	44602	44.53	0
247	45226	44.535292215114	0
247	45802	44.540292215114	0
247	46415	44.545292215114	0
247	47059	44.55314895551	0
247	47583	44.55814895551	0
247	48178	44.56314895551	0
247	48831	44.56814895551	0
247	49304	44.57314895551	0
247	50023	44.582135207493	0
247	50743	44.587135207493	0
247	51127	44.592135207493	0
247	51836	44.597135207493	0
247	52444	44.602135207493	0
247	53152	44.611731038446	0
247	53561	44.616731038446	0
247	55435	44.635429690796	0
247	56251	44.640429690796	0
247	56764	44.645429690796	0
247	57297	44.650429690796	0
247	57799	44.655429690796	0
247	58785	44.66270822419	0
247	59229	44.66770822419	0
247	59524	44.67270822419	0
247	60255	44.679686169819	0
247	60805	44.684686169819	0
247	61834	44.695668241126	0
247	62205	44.700668241126	0
247	62492	44.705668241126	0
247	63213	44.710668241126	0
247	64004	44.716002898722	0
247	64563	44.721002898722	0
247	64869	44.729497863994	0
247	65353	44.734497863994	0
247	65700	44.739497863994	0
247	66115	44.744497863994	0
247	66119	44.749497863994	0
247	66620	44.75735922089	0
247	66913	44.76235922089	0
247	67346	44.76735922089	0
247	67875	44.77255571789	0
247	68171	44.77755571789	0
247	69018	44.78920678011	0
247	69330	44.79420678011	0
247	69331	44.79920678011	0
247	69489	44.808227704887	0
247	69698	44.813227704887	0
247	69927	44.81836617222	0
247	69928	44.82336617222	0
247	70054	45.505	1
247	70284	45.51	19
247	71018	45.515	0
247	71617	45.52	0
247	72181	45.525	0
247	72870	45.53	0
247	73379	45.535	0
247	74105	45.54	0
247	74621	45.545	0
247	74928	45.55	0
247	75307	45.555	0
247	75767	45.56	0
247	76207	45.565	0
247	76644	45.57	0
247	77440	45.575	0
247	78682	45.593081011656	0
247	79284	45.598081011656	0
247	79797	45.603081011656	0
247	80175	45.608081011656	0
247	80690	45.613081011656	0
247	81069	45.618081011656	0
247	81738	45.624749480427	0
247	82198	45.629749480427	0
247	83848	45.653497802668	0
247	84252	45.658497802668	0
247	84897	45.663497802668	0
247	85039	45.668497802668	0
247	85481	45.674065831199	0
247	85835	45.679065831199	0
247	86815	45.68958435166	0
247	87117	45.69458435166	0
247	87630	45.69958435166	0
247	87845	45.70458435166	0
247	88382	45.710856496072	0
247	88660	45.715856496072	0
247	88661	45.720856496072	0
247	89305	45.733266510867	0
247	89828	45.738266510867	0
247	90238	45.749510849136	0
247	90239	45.754510849136	0
247	90526	45.773714545574	0
247	90527	45.778714545574	0
247	90653	46.505	1
247	90660	46.51	0
247	91847	46.519369953112	29
247	92526	46.524369953112	0
247	93404	46.529369953112	0
247	94474	46.536489882139	0
247	94835	46.541489882139	0
247	95541	46.546841902715	0
247	96240	46.551841902715	0
247	97372	46.563466001918	0
247	97974	46.568466001918	0
247	98728	46.573466001918	0
247	99345	46.578466001918	0
247	99795	46.583466001918	0
247	101064	46.595743438054	0
247	101582	46.600743438054	0
247	101891	46.605743438054	0
247	102535	46.610743438054	0
247	103423	46.615743438054	0
247	104024	46.620743438054	0
247	104652	46.627510315389	0
247	105067	46.632510315389	0
247	105361	46.637510315389	0
247	106265	46.645536290702	0
247	106937	46.650536290702	0
247	107666	46.655536290702	0
247	108134	46.660536290702	0
247	108756	46.665536290702	0
247	109202	46.670536290702	0
247	109901	46.675536290702	0
247	110477	46.680536290702	0
247	110916	46.68609884107	0
247	111669	46.69109884107	0
247	111968	46.69609884107	0
247	112330	46.702246478266	0
247	112855	46.707246478266	0
247	113177	46.712246478266	0
247	113546	46.717246478266	0
247	114000	46.7230722114	0
247	114753	46.7280722114	0
247	115207	46.7330722114	0
247	115460	46.7380722114	0
247	115845	46.7430722114	0
247	116286	46.7480722114	0
247	117133	46.756794224674	0
247	117560	46.761794224674	0
247	117797	46.766794224674	0
247	117874	46.771794224674	0
247	118625	46.777957040154	0
247	118943	46.782957040154	0
247	119616	46.787957040154	0
247	119902	46.792957040154	0
247	120212	46.806315592846	0
247	120285	46.811315592846	0
247	120812	46.817312492013	0
247	120819	46.822312492013	0
247	121184	46.829969201286	0
247	121474	46.834969201286	0
247	121712	46.839969201286	0
247	121713	46.844969201286	0
247	122023	46.862917546336	0
247	122024	46.867917546336	0
247	122224	47.505	1
247	122944	47.51	29
247	124019	47.515	0
247	124845	47.52	0
247	125648	47.525	0
247	126106	47.53	0
247	126567	47.535	0
247	127104	47.54	0
247	127589	47.545	0
247	128215	47.55	0
247	128739	47.555	0
247	131170	47.575432529466	0
247	131710	47.580432529466	0
247	132361	47.585432529466	0
247	133173	47.593529981972	0
247	133610	47.598529981972	0
247	134170	47.605672748209	0
247	134774	47.610672748209	0
247	135253	47.615672748209	0
247	136460	47.624958099445	0
247	137007	47.629958099445	0
247	137699	47.634958099445	0
247	138102	47.639958099445	0
247	139375	47.650508507363	0
247	140019	47.655508507363	0
247	140700	47.660508507363	0
247	141343	47.665508507363	0
247	141725	47.670508507363	0
247	142867	47.685738369947	0
247	143430	47.690738369947	0
247	143809	47.695738369947	0
247	145485	47.709894140465	0
247	145983	47.714894140465	0
247	146357	47.719894140465	0
247	147106	47.724894140465	0
247	147719	47.729894140465	0
247	148201	47.734894140465	0
247	148917	47.740522967717	0
247	149436	47.745522967717	0
247	149968	47.751679052721	0
247	150608	47.756679052721	0
247	151141	47.761679052721	0
247	152252	47.771180327582	0
247	152740	47.776180327582	0
247	154631	47.796368778333	0
247	155090	47.801368778333	0
247	155773	47.806368778333	0
247	156386	47.811368778333	0
247	157006	47.816368778333	0
247	157479	47.821368778333	0
247	158187	47.826368778333	0
247	158672	47.831368778333	0
247	159053	47.836368778333	0
247	159668	47.842368550601	0
247	159904	47.847368550601	0
247	160689	47.862526120899	0
247	160837	47.867526120899	0
247	160911	47.872526120899	0
247	161226	47.877526120899	0
247	161758	47.882526120899	0
247	161759	47.887526120899	0
247	162063	47.896994944413	0
247	162132	47.901994944413	0
247	162686	47.92837566576	0
247	162687	47.93337566576	0
247	162988	47.983191069999	0
247	162989	47.988191069999	0
247	163121	48.505	1
247	163518	48.51	28
247	164337	48.515	0
247	165382	48.52	0
247	166128	48.525	0
247	167425	48.537793389326	0
247	168145	48.542793389326	0
247	168810	48.547793389326	0
247	169440	48.552793389326	0
247	169993	48.557793389326	0
247	170628	48.562793389326	0
247	171687	48.567793389326	0
247	172210	48.572793389326	0
247	172773	48.578313354293	0
247	173405	48.583313354293	0
247	175053	48.599035778089	0
247	175538	48.604035778089	0
247	175995	48.609035778089	0
247	176973	48.618138960276	0
247	177705	48.623138960276	0
247	177946	48.628138960276	0
247	179750	48.644887284409	0
247	180220	48.649887284409	0
247	180749	48.654887284409	0
247	183319	48.681823181953	0
247	183856	48.686823181953	0
247	184515	48.694067631546	0
247	185044	48.699067631546	0
247	185530	48.704067631546	0
247	186142	48.709067631546	0
247	186680	48.714067631546	0
247	187385	48.719067631546	0
247	188042	48.724067631546	0
247	188429	48.729067631546	0
247	188908	48.734067631546	0
247	189373	48.739067631546	0
247	189850	48.744689455587	0
247	190384	48.749689455587	0
247	191023	48.754689455587	0
247	191548	48.759689455587	0
247	192096	48.764689455587	0
247	192887	48.772841144298	0
247	193210	48.777841144298	0
247	193583	48.782841144298	0
247	194612	48.792315166129	0
247	195082	48.797315166129	0
247	195565	48.802315166129	0
247	195866	48.807315166129	0
247	195868	48.812315166129	0
247	196093	48.817315166129	0
247	196502	48.827763656803	0
247	196821	48.832763656803	0
247	197130	48.837763656803	0
247	197134	48.842763656803	0
247	197446	48.850603639966	0
247	197447	48.855603639966	0
247	197750	48.883947471242	0
247	197751	48.888947471242	0
247	198067	48.899973613095	0
247	198068	48.904973613095	0
247	198222	49.505	1
247	198291	49.51	0
247	198896	49.515386637216	9
247	199480	49.520386637216	0
247	199793	49.525386637216	0
247	200032	49.530386637216	0
247	200190	49.538060199631	0
247	200266	49.543060199631	0
247	200806	49.549670899536	0
247	201270	49.554670899536	0
247	201564	49.559670899536	0
247	201945	49.564670899536	0
247	202599	49.569670899536	0
247	203264	49.574670899536	0
247	204174	49.579670899536	0
247	204771	49.584670899536	0
247	204860	49.589670899536	0
247	205147	49.594670899536	0
247	205665	49.599670899536	0
247	206096	49.604670899536	0
247	206515	49.609670899536	0
247	207129	49.614670899536	0
247	207547	49.619670899536	0
247	208137	49.635463741426	0
247	208208	49.640463741426	0
247	208446	49.646905569178	0
247	208447	49.651905569178	0
247	209047	49.669044223346	0
247	209354	49.674044223346	0
247	209355	49.679044223346	0
247	209503	50.505	1
247	209578	50.51	0
247	210404	50.516085883015	16
247	211149	50.521085883015	0
247	211877	50.526085883015	0
247	212728	50.531085883015	0
247	213466	50.536085883015	0
247	214095	50.541085883015	0
247	214701	50.546085883015	0
247	215278	50.551085883015	0
247	215681	50.556085883015	0
247	216144	50.561085883015	0
247	216818	50.566085883015	0
247	217214	50.571085883015	0
247	218111	50.580219339617	0
247	218647	50.585219339617	0
247	219165	50.590219339617	0
247	220238	50.606778676993	0
247	220669	50.611778676993	0
247	220820	50.616778676993	0
247	222052	50.640477495217	0
247	222463	50.645477495217	0
247	222933	50.650477495217	0
247	223324	50.655477495217	0
247	223405	50.660477495217	0
247	224076	50.666938372295	0
247	224385	50.671938372295	0
247	224843	50.676938372295	0
247	225250	50.681938372295	0
247	225484	50.686938372295	0
247	226328	50.704168935898	0
247	226474	50.709168935898	0
247	227388	50.725767108159	0
247	227471	50.730767108159	0
247	228131	50.736032958969	0
247	228445	50.741032958969	0
247	228625	50.746032958969	0
247	229059	50.751032958969	0
247	229360	50.758458906397	0
247	229753	50.763458906397	0
247	229972	50.768458906397	0
247	230614	50.784810703973	0
247	230615	50.789810703973	0
247	231236	50.804090739958	0
247	231237	50.809090739958	0
247	231629	50.817770781204	0
247	231875	50.822770781204	0
247	232510	50.84754893288	0
247	232511	50.85254893288	0
247	232665	51.505	1
247	232888	51.51	10
247	233463	51.515	0
247	234225	51.52	0
247	235126	51.525	0
247	235798	51.53	0
247	236428	51.535	0
247	237010	51.54	0
247	237464	51.545	0
247	237837	51.55	0
247	238163	51.555	0
247	238622	51.56	0
247	239478	51.565	0
247	239863	51.57	0
247	240173	51.575	0
247	240955	51.586939238488	0
247	241692	51.591939238488	0
247	241987	51.596939238488	0
247	242364	51.601939238488	0
247	242686	51.606939238488	0
247	243103	51.611939238488	0
247	243693	51.616939238488	0
247	243835	51.621946890348	0
247	243904	51.626946890348	0
247	244126	51.632462735599	0
247	244454	51.637462735599	0
247	244968	51.642462735599	0
247	245382	51.647462735599	0
247	245383	51.652462735599	0
247	246145	51.667470719594	0
247	246295	51.672470719594	0
247	246744	52.505	1
247	246819	52.51	0
247	248170	52.515469950741	31
247	249237	52.520469950741	0
247	249967	52.525469950741	0
247	250767	52.530469950741	0
247	251302	52.535469950741	0
247	251861	52.54144870314	0
247	252664	52.54644870314	0
247	253256	52.55144870314	0
247	254814	52.562288809737	0
247	255844	52.567288809737	0
247	256329	52.572288809737	0
247	257134	52.577778541578	0
247	257761	52.582778541578	0
247	260473	52.603602235015	0
247	261228	52.608602235015	0
247	261767	52.613602235015	0
247	262270	52.618602235015	0
247	263407	52.628626885069	0
247	264067	52.633626885069	0
247	264685	52.638626885069	0
247	265249	52.643626885069	0
247	266671	52.653576352077	0
247	267264	52.658576352077	0
247	268158	52.666240368737	0
247	269201	52.671240368737	0
247	269970	52.676240368737	0
247	270714	52.682987642295	0
247	271454	52.687987642295	0
247	272723	52.69678681611	0
247	273599	52.70178681611	0
247	273751	52.70678681611	0
247	276294	52.730958187797	0
247	276991	52.735958187797	0
247	277625	52.740958187797	0
247	278682	52.746690850826	0
247	279154	52.751690850826	0
247	280295	52.762105393831	0
247	280765	52.767105393831	0
247	282684	52.790501226034	0
247	283314	52.795501226034	0
247	283702	52.800501226034	0
247	284325	52.805501226034	0
247	284943	52.813186566471	0
247	285815	52.818186566471	0
247	286222	52.823186566471	0
247	286882	52.828186566471	0
247	287198	52.833186566471	0
247	287908	52.838186566471	0
247	288394	52.843186566471	0
247	289084	52.848186566471	0
247	289804	52.856053522121	0
247	290332	52.861053522121	0
247	290997	52.866053522121	0
247	291079	52.871053522121	0
247	291642	52.876053522121	0
247	292036	52.881053522121	0
247	292435	52.886053522121	0
247	292504	52.891053522121	0
247	292826	52.897336287087	0
247	293072	52.902336287087	0
247	294102	52.942659667533	0
247	294590	52.947659667533	0
247	295005	52.952659667533	0
247	295166	53.505	1
247	295414	53.51	14
247	296106	53.515	0
247	296611	53.52	0
247	297254	53.525	0
247	297822	53.53	0
247	298159	53.535	0
247	298634	53.54	0
247	299205	53.545	0
247	299845	53.55	0
247	300454	53.555	0
247	300845	53.56	0
247	301234	53.565	0
247	301615	53.571403305128	0
247	302270	53.576403305128	0
247	302662	53.581403305128	0
247	303043	53.586403305128	0
247	303496	53.591403305128	0
247	303799	53.596403305128	0
247	303868	53.601403305128	0
247	304356	53.608073520757	0
247	304743	53.613073520757	0
247	305247	53.618073520757	0
247	305478	53.623073520757	0
247	305479	53.628073520757	0
247	305853	53.636282819384	0
247	306258	53.641282819384	0
247	306490	53.646282819384	0
247	306872	53.651875703211	0
247	306873	53.656875703211	0
247	307510	53.666235711694	0
247	308051	53.671235711694	0
247	308458	53.678725865186	0
247	308459	53.683725865186	0
247	308619	54.505	1
247	308954	54.51	27
247	310231	54.515	0
247	311340	54.52	0
247	312667	54.525	0
247	313322	54.53	0
247	313659	54.535	0
247	314527	54.54	0
247	315312	54.545	0
247	315951	54.55	0
247	316373	54.555	0
247	317246	54.560024318779	0
247	317653	54.565024318779	0
247	318287	54.570024318779	0
247	319107	54.575024318779	0
247	319647	54.580024318779	0
247	320223	54.585024318779	0
247	321312	54.592660609668	0
247	321799	54.597660609668	0
247	323413	54.610383628716	0
247	324111	54.615383628716	0
247	324904	54.62245293696	0
247	325408	54.62745293696	0
247	326033	54.63245293696	0
247	327549	54.646512707338	0
247	327862	54.651512707338	0
247	328595	54.658233674164	0
247	329280	54.663233674164	0
247	329755	54.668233674164	0
247	330324	54.673233674164	0
247	331155	54.681045720718	0
247	331565	54.686045720718	0
247	332583	54.701760718283	0
247	333165	54.706760718283	0
247	333624	54.711760718283	0
247	334158	54.716760718283	0
247	335340	54.728575541209	0
247	335943	54.733575541209	0
247	336564	54.738575541209	0
247	337117	54.743575541209	0
247	337519	54.748575541209	0
247	337860	54.753575541209	0
247	338463	54.758575541209	0
247	339251	54.763575541209	0
247	339740	54.768575541209	0
247	340224	54.773575541209	0
247	340563	54.778575541209	0
247	341270	54.784151649272	0
247	341937	54.789151649272	0
247	342495	54.794151649272	0
247	342828	54.803113472519	0
247	342897	54.808113472519	0
247	343496	54.814293742711	0
247	343797	54.819293742711	0
247	344813	54.89122267854	0
247	345064	54.89622267854	0
247	345065	54.90122267854	0
247	347353	70.00501	0
247	347455	70.01001	0
247	347796	70.016566025008	0
247	347797	70.021566025008	0
247	348175	70.094916036282	0
247	348569	70.099916036282	0
247	348899	70.104916036282	0
247	348900	70.109916036282	0
247	349294	70.129964089603	0
247	349863	70.134964089603	0
247	349864	70.139964089603	0
247	350319	71.00501	0
247	350641	71.01001	0
247	350956	71.01501	0
247	350957	71.02001	0
247	351246	72.00501	0
247	351411	72.01001	0
247	351815	72.032556027214	0
247	352414	72.037556027214	0
247	352887	72.042556027214	0
247	352891	72.047556027214	0
247	353208	72.054796076482	0
247	353209	72.059796076482	0
247	353764	72.069484070895	0
247	354188	72.074484070895	0
247	354508	72.079484070895	0
247	354512	72.084484070895	0
247	354807	72.091724164071	0
247	354808	72.096724164071	0
247	355106	73.00501	0
247	355617	73.01001	0
247	356009	73.01501	0
247	356593	73.02001	0
247	357056	73.02501	0
247	357057	73.03001	0
247	357452	73.052452082209	0
247	357715	73.057452082209	0
247	357716	73.062452082209	0
247	430264	670.00501	0
247	430268	670.01001	0
247	430677	670.016886025008	0
247	431079	670.021886025008	0
247	431397	670.026886025008	0
247	431895	670.031886025008	0
247	432383	670.036886025008	0
247	432545	670.041886025008	0
247	432546	670.046886025008	0
247	432912	671.00501	0
247	433157	671.01001	0
247	433389	671.01501	0
247	433639	671.020036045388	0
247	433640	671.025036045388	0
247	434093	672.00501	0
247	434331	672.01001	0
247	434687	672.01501	0
247	434999	672.02001	0
247	435327	672.02501	0
247	435889	672.03001	0
247	436233	672.03501	0
247	436550	672.04001	0
247	436551	672.04501	0
247	437202	672.057924103793	0
247	437497	672.062924103793	0
247	437498	672.067924103793	0
247	437960	673.00501	0
247	437964	673.01001	0
247	438373	673.016886024269	0
247	438869	673.021886024269	0
247	439193	673.026886024269	0
247	439300	673.031886024269	0
247	439862	673.038444082208	0
247	440011	673.043444082208	0
247	440274	673.048924129026	0
247	440275	673.053924129026	0
247	512659	1270.00501	0
247	513167	1270.01001	0
247	513477	1270.01501	0
247	513816	1270.02001	0
247	514601	1270.02501	0
247	514924	1270.03001	0
247	514925	1270.03501	0
247	515566	1270.05505205129	0
247	515567	1270.06005205129	0
247	516019	1271.00501	0
247	516023	1271.01001	0
247	516410	1271.016876023634	0
247	516660	1271.021876023634	0
247	516661	1271.026876023634	0
247	517114	1272.00501	0
247	517518	1272.01001	0
247	517862	1272.01501	0
247	518350	1272.02001	0
247	518927	1272.02501	0
247	519253	1272.03001	0
247	519570	1272.03501	0
247	519571	1272.04001	0
247	519965	1272.053764103794	0
247	520376	1272.058764103794	0
247	520518	1272.063764103794	0
247	520980	1273.00501	0
247	520984	1273.01001	0
247	521550	1273.017206024269	0
247	521978	1273.022206024269	0
247	522440	1273.027206024269	0
247	522772	1273.032206024269	0
247	522773	1273.037206024269	0
247	523430	1273.055404082209	0
247	523431	1273.060404082209	0
247	596038	1870.00501	0
247	596039	1870.01001	0
247	596451	1870.018806025007	0
247	596925	1870.023806025007	0
247	597406	1870.028806025007	0
247	597672	1870.033806025007	0
247	598062	1870.038806025007	0
247	598317	1870.043806025007	0
247	598318	1870.048806025007	0
247	598773	1871.00501	0
247	599095	1871.01001	0
247	599410	1871.01501	0
247	599411	1871.02001	0
247	599867	1872.00501	0
247	600203	1872.01001	0
247	600547	1872.01501	0
247	600939	1872.02001	0
247	601364	1872.02501	0
247	601851	1872.03001	0
247	602202	1872.03501	0
247	602594	1872.04001	0
247	603138	1872.04501	0
247	603139	1872.05001	0
247	603503	1873.00501	0
247	603670	1873.01001	0
247	604266	1873.015926024269	0
247	604676	1873.020926024269	0
247	605006	1873.025926024269	0
247	605582	1873.030926024269	0
247	605913	1873.035926024269	0
247	605914	1873.040926024269	0
247	678462	2470.00501	0
247	678806	2470.01001	0
247	678875	2470.01501	0
247	679346	2470.020676036282	0
247	679684	2470.025676036282	0
247	680178	2470.030676036282	0
247	680425	2470.035676036282	0
247	680755	2470.040676036282	0
247	680756	2470.045676036282	0
247	681208	2471.00501	0
247	681530	2471.01001	0
247	681848	2471.01501	0
247	681849	2471.02001	0
247	682302	2472.00501	0
247	682641	2472.01001	0
247	683050	2472.01501	0
247	683710	2472.02001	0
247	683857	2472.02501	0
247	684109	2472.030796076482	0
247	684110	2472.035796076482	0
247	684996	2472.050284070895	0
247	685267	2472.055284070895	0
247	685743	2472.060284070895	0
247	686038	2472.065284070895	0
247	686039	2472.070284070895	0
247	686337	2473.00501	0
247	686848	2473.01001	0
247	687181	2473.01501	0
247	687636	2473.02001	0
247	687637	2473.02501	0
247	688032	2473.044884055685	0
247	688608	2473.049884055685	0
247	688939	2473.054884055685	0
247	688940	2473.059884055685	0
247	761324	3070.00501	0
247	761680	3070.01001	0
247	762142	3070.01501	0
247	762468	3070.02001	0
247	762868	3070.02501	0
247	763445	3070.03001	0
247	763768	3070.03501	0
247	763769	3070.04001	0
247	764135	3071.00501	0
247	764446	3071.01001	0
247	764861	3071.01501	0
247	764862	3071.02001	0
247	765315	3072.00501	0
247	765648	3072.01001	0