version 2
run AODVScenario_1g-0-20121008-11:53:28-2312
attr configname AODVScenario_1g
attr datetime 20121008-11:53:28
attr experiment AODVScenario_1g
attr inifile omnetpp.ini
attr iterationvars ""
attr iterationvars2 $repetition=0
attr measurement ""
attr network csma802154net
attr processid 2312
attr repetition 0
attr replication #0
attr resultdir results
attr runnumber 0
attr seedset 0

vector 386  csma802154net.dataCentricNetworkMan  RREQPacketFrequency  ETV
vector 387  csma802154net.dataCentricNetworkMan  DiscoveryPacketFrequency  ETV
vector 388  csma802154net.dataCentricNetworkMan  RegisterPacketFrequency  ETV
vector 389  csma802154net.dataCentricNetworkMan  RReplyPacketFrequency  ETV
vector 390  csma802154net.dataCentricNetworkMan  AODVDataPacketFrequency  ETV
vector 398  csma802154net.fixhost[6].udpApp  "End-to-end delay"  ETV
vector 383  csma802154net.dataCentricNetworkMan  dataPacketE2EDelay  ETV
vector 411  csma802154net.fixhost[19].udpApp  "End-to-end delay"  ETV
vector 412  csma802154net.fixhost[20].udpApp  "End-to-end delay"  ETV
vector 401  csma802154net.fixhost[9].udpApp  "End-to-end delay"  ETV
vector 404  csma802154net.fixhost[12].udpApp  "End-to-end delay"  ETV
vector 409  csma802154net.fixhost[17].udpApp  "End-to-end delay"  ETV
vector 403  csma802154net.fixhost[11].udpApp  "End-to-end delay"  ETV
vector 402  csma802154net.fixhost[10].udpApp  "End-to-end delay"  ETV
vector 408  csma802154net.fixhost[16].udpApp  "End-to-end delay"  ETV
vector 395  csma802154net.fixhost[3].udpApp  "End-to-end delay"  ETV
vector 393  csma802154net.fixhost[1].udpApp  "End-to-end delay"  ETV
vector 394  csma802154net.fixhost[2].udpApp  "End-to-end delay"  ETV
383	772926	70.008676037287	0.008676037287
383	773635	70.012476074583	0.012476074583
383	774319	70.016596101131	0.016596101131
383	787704	71.008996043736	0.008996043736
383	788364	71.012796087909	0.012796087909
383	789028	71.017236124951	0.017236124951
383	805634	72.027676125704	0.027676125704
383	807014	72.048444088053	0.048444088053
383	808442	72.055724147865	0.055724147865
383	824143	73.021356101496	0.021356101496
383	824912	73.0245240702	0.0245240702
383	876669	73.190186339829	0.190186339829
386	11005	40.005	1
386	11146	40.01	0
386	12994	40.016456446436	291
386	16045	40.021456446436	72
386	19207	40.026456446436	64
386	22535	40.031456446436	180
386	24720	40.036456446436	185
386	26775	40.041456446436	70
386	28780	40.046456446436	163
386	31565	40.051456446436	150
386	33139	40.056456446436	78
386	34872	40.061456446436	169
386	36702	40.066456446436	136
386	38765	40.071456446436	130
386	40569	40.076456446436	155
386	42174	40.081456446436	112
386	44137	40.086456446436	162
386	45429	40.091456446436	54
386	46908	40.096456446436	148
386	47981	40.101456446436	66
386	48873	40.106456446436	95
386	50667	40.111456446436	127
386	52039	40.116456446436	167
386	53435	40.121456446436	171
386	54231	40.126456446436	104
386	56131	40.131456446436	183
386	57438	40.136456446436	143
386	58552	40.141456446436	114
386	59226	40.146456446436	75
386	60217	40.151456446436	86
386	61189	40.156456446436	110
386	62689	40.161456446436	192
386	63405	40.166456446436	115
386	64249	40.171456446436	56
386	65104	40.176456446436	117
386	65105	40.181456446436	0
386	66943	40.195333692289	233
386	67799	40.200333692289	118
386	68335	40.205333692289	54
386	68922	40.210333692289	91
386	68926	40.215333692289	0
386	69828	40.222609684017	101
386	70525	40.227609684017	113
386	70526	40.232609684017	0
386	71311	40.242907438874	102
386	72087	40.247907438874	103
386	72088	40.252907438874	0
386	72954	40.303517043483	120
386	72955	40.308517043483	0
386	74429	43.005	0
386	75138	43.01	0
386	76088	44.005	0
386	76548	44.01	0
386	77716	45.005	0
386	78391	45.01	0
386	79252	46.005	1
386	80016	46.01	115
386	81499	46.015	102
386	84498	46.02	124
386	88690	46.025	17
386	93245	46.03	27
386	95449	46.035	126
386	97810	46.04	109
386	99997	46.045	108
386	102058	46.05	67
386	103667	46.055	114
386	105835	46.06	113
386	107725	46.065	174
386	109283	46.07	78
386	110883	46.075	66
386	112502	46.08	51
386	113943	46.085	178
386	115610	46.09	200
386	117107	46.095	185
386	118107	46.1	117
386	119643	46.105	99
386	120303	46.11	0
386	122118	46.117302096388	168
386	123077	46.122302096388	78
386	124390	46.127302096388	157
386	125832	46.132302096388	207
386	126955	46.137302096388	87
386	128212	46.142302096388	102
386	128225	46.147302096388	0
386	130035	46.15496234487	196
386	130994	46.15996234487	84
386	131672	46.16496234487	73
386	132372	46.16996234487	86
386	133127	46.17496234487	71
386	133819	46.17996234487	112
386	133820	46.18496234487	0
386	135522	46.200098601268	233
386	136382	46.205098601268	120
386	136386	46.210098601268	0
386	138134	46.218210720955	244
386	138135	46.223210720955	0
386	138771	46.238745739868	74
386	138772	46.243745739868	0
386	139701	47.005	1
386	139711	47.01	0
386	141501	47.017683079327	229
386	144398	47.022683079327	112
386	147881	47.027683079327	70
386	152516	47.032683079327	34
386	154459	47.037683079327	63
386	156794	47.042683079327	153
386	159023	47.047683079327	114
386	160724	47.052683079327	98
386	162733	47.057683079327	163
386	164317	47.062683079327	140
386	165881	47.067683079327	158
386	167048	47.072683079327	57
386	168436	47.077683079327	57
386	169804	47.082683079327	101
386	171444	47.087683079327	132
386	173137	47.092683079327	193
386	174869	47.097683079327	208
386	176350	47.102683079327	147
386	177370	47.107683079327	123
386	178493	47.112683079327	84
386	180127	47.117683079327	159
386	181766	47.122683079327	189
386	182466	47.127683079327	49
386	183892	47.132683079327	119
386	185003	47.137683079327	82
386	186454	47.142683079327	183
386	188133	47.147683079327	193
386	188140	47.152683079327	0
386	190137	47.159590837165	203
386	191453	47.164590837165	183
386	192328	47.169590837165	95
386	193901	47.174590837165	233
386	194729	47.179590837165	113
386	194864	47.184590837165	0
386	196241	47.190147241651	196
386	196376	47.195147241651	0
386	198086	47.201943067845	235
386	198821	47.206943067845	120
386	199494	47.211943067845	0
386	200998	47.216943067845	116
386	201133	47.221943067845	0
386	201725	47.227595863176	92
386	201726	47.232595863176	0
386	202671	48.005	0
386	203349	48.01	0
386	206189	49.005	0
386	206894	49.01	1
386	206898	49.015	0
386	208338	49.026512766677	125
386	211385	49.031512766677	102
386	214429	49.036512766677	45
386	217029	49.041512766677	99
386	219589	49.046512766677	107
386	221955	49.051512766677	89
386	224122	49.056512766677	86
386	227619	49.061512766677	175
386	229095	49.066512766677	74
386	231546	49.071512766677	127
386	233050	49.076512766677	72
386	234513	49.081512766677	116
386	235052	49.086512766677	49
386	236607	49.091512766677	198
386	238280	49.096512766677	162
386	239776	49.101512766677	191
386	241424	49.106512766677	118
386	242399	49.111512766677	112
386	244159	49.116512766677	186
386	245937	49.121512766677	186
386	247487	49.126512766677	227
386	248344	49.131512766677	117
386	250050	49.136512766677	109
386	250911	49.141512766677	116
386	251875	49.146512766677	112
386	252822	49.151512766677	108
386	254460	49.156512766677	160
386	255255	49.161512766677	67
386	256610	49.166512766677	190
386	257409	49.171512766677	74
386	258340	49.176512766677	106
386	259158	49.181512766677	84
386	260372	49.186512766677	73
386	261272	49.191512766677	31
386	262662	49.196512766677	117
386	263546	49.201512766677	70
386	264402	49.206512766677	83
386	266064	49.211512766677	225
386	267584	49.216512766677	87
386	268267	49.221512766677	0
386	268963	49.226512766677	0
386	269749	49.23505008333	104
386	270017	49.24005008333	0
386	270686	49.245165582055	40
386	271388	49.250165582055	114
386	271389	49.255165582055	0
386	272220	49.296033933997	113
386	272221	49.301033933997	0
386	272978	50.005	0
386	273941	50.01	1
386	273952	50.015	0
386	275677	50.022162369577	208
386	279475	50.027162369577	17
386	283620	50.032162369577	21
386	286018	50.037162369577	81
386	288770	50.042162369577	86
386	291151	50.047162369577	103
386	293314	50.052162369577	96
386	295297	50.057162369577	125
386	297876	50.062162369577	139
386	299814	50.067162369577	117
386	301343	50.072162369577	70
386	303165	50.077162369577	223
386	305257	50.082162369577	108
386	306533	50.087162369577	81
386	308093	50.092162369577	136
386	310328	50.097162369577	197
386	311818	50.102162369577	182
386	312798	50.107162369577	13
386	313962	50.112162369577	79
386	315449	50.117162369577	216
386	316493	50.122162369577	66
386	318055	50.127162369577	204
386	319140	50.132162369577	41
386	319718	50.137162369577	0
386	321444	50.144218377399	210
386	322140	50.149218377399	86
386	323615	50.154218377399	188
386	325079	50.159218377399	186
386	325819	50.164218377399	120
386	326800	50.169218377399	116
386	328057	50.174218377399	78
386	328947	50.179218377399	122
386	330575	50.184218377399	219
386	331416	50.189218377399	115
386	331554	50.194218377399	0
386	333126	50.200194975139	234
386	333853	50.205194975139	92
386	334560	50.210194975139	87
386	335527	50.215194975139	114
386	336223	50.220194975139	86
386	336670	50.225194975139	63
386	336671	50.230194975139	0
386	337432	50.242420215434	99
386	338128	50.247420215434	86
386	338129	50.252420215434	0
386	339082	51.005	0
386	339753	51.01	1
386	340333	51.015	116
386	341997	51.02	133
386	344721	51.025	52
386	348108	51.03	209
386	350325	51.035	124
386	353021	51.04	130
386	355601	51.045	152
386	357869	51.05	89
386	359861	51.055	116
386	361788	51.06	84
386	363147	51.065	122
386	365393	51.07	186
386	366587	51.075	92
386	368332	51.08	183
386	369357	51.085	49
386	370988	51.09	148
386	371896	51.095	61
386	373750	51.1	138
386	375438	51.105	136
386	376555	51.11	107
386	377695	51.115	55
386	378637	51.12	71
386	380240	51.125	186
386	381830	51.13	203
386	382950	51.135	115
386	384153	51.14	87
386	385567	51.145	175
386	387055	51.15	188
386	388317	51.155	173
386	388464	51.16	0
386	389769	51.165728727884	153
386	390635	51.170728727884	120
386	391502	51.175728727884	0
386	392936	51.180728727884	168
386	393622	51.185728727884	0
386	395230	51.194548685389	99
386	396802	51.199548685389	118
386	397592	51.204548685389	104
386	399006	51.209548685389	82
386	400555	51.214548685389	229
386	401228	51.219548685389	82
386	401229	51.224548685389	0
386	401990	51.241367628831	93
386	402050	51.246367628831	0
386	403548	51.253740069546	194
386	403549	51.258740069546	0
386	404205	51.268309106796	78
386	404206	51.273309106796	0
386	405687	51.293537828107	190
386	405688	51.298537828107	0
386	406815	52.005	0
386	407526	52.01	1
386	407529	52.015	0
386	409667	52.025919635929	223
386	413020	52.030919635929	120
386	416939	52.035919635929	42
386	419758	52.040919635929	54
386	422927	52.045919635929	124
386	425109	52.050919635929	199
386	427249	52.055919635929	85
386	429528	52.060919635929	55
386	431680	52.065919635929	102
386	433478	52.070919635929	139
386	435513	52.075919635929	115
386	437120	52.080919635929	133
386	438738	52.085919635929	116
386	440206	52.090919635929	95
386	441173	52.095919635929	76
386	442650	52.100919635929	146
386	444355	52.105919635929	201
386	445212	52.110919635929	117
386	446971	52.115919635929	187
386	447113	52.120919635929	0
386	449427	52.126389974056	295
386	450371	52.131389974056	77
386	452306	52.136389974056	162
386	453804	52.141389974056	165
386	455680	52.146389974056	149
386	456720	52.151389974056	96
386	457742	52.156389974056	0
386	459167	52.161389974056	82
386	460039	52.166389974056	0
386	461447	52.175575018796	174
386	462193	52.180575018796	0
386	463848	52.191547451441	94
386	464606	52.196547451441	99
386	465603	52.201547451441	120
386	466319	52.206547451441	116
386	467035	52.211547451441	0
386	468455	52.216547451441	83
386	469252	52.221547451441	91
386	470105	52.226547451441	118
386	470243	52.231547451441	0
386	470810	52.238286690547	87
386	470811	52.243286690547	0
386	471657	52.253010772316	116
386	471658	52.258010772316	0
386	472789	53.005	0
386	472925	53.01	0
386	473511	53.015286036118	1
386	474085	53.020286036118	116
386	475133	53.025286036118	51
386	477879	53.030286036118	102
386	481210	53.035286036118	67
386	484320	53.040286036118	107
386	487417	53.045286036118	75
386	491200	53.050286036118	33
386	493572	53.055286036118	80
386	495529	53.060286036118	116
386	497154	53.065286036118	86
386	499615	53.070286036118	142
386	501505	53.075286036118	141
386	502638	53.080286036118	85
386	504392	53.085286036118	150
386	505977	53.090286036118	143
386	507007	53.095286036118	122
386	508024	53.100286036118	94
386	509591	53.105286036118	70
386	511167	53.110286036118	209
386	511931	53.115286036118	99
386	513415	53.120286036118	216
386	515226	53.125286036118	171
386	516847	53.130286036118	59
386	518086	53.135286036118	78
386	518941	53.140286036118	0
386	520617	53.145286036118	159
386	521268	53.150286036118	74
386	522107	53.155286036118	83
386	522856	53.160286036118	96
386	523701	53.165286036118	114
386	525171	53.170286036118	99
386	525791	53.175286036118	70
386	526615	53.180286036118	111
386	527361	53.185286036118	0
386	529099	53.193499964585	31
386	529372	53.198499964585	0
386	530270	53.203983365758	95
386	532011	53.208983365758	183
386	532576	53.213983365758	86
386	533364	53.218983365758	105
386	533365	53.223983365758	0
386	534158	53.255037964601	88
386	534159	53.260037964601	0
386	534946	54.005	0
386	535193	54.01	0
386	536043	54.018166033802	1
386	537528	54.023166033802	265
386	540761	54.028166033802	28
386	544597	54.033166033802	8
386	547361	54.038166033802	28
386	549256	54.043166033802	82
386	552179	54.048166033802	69
386	554316	54.053166033802	68
386	556584	54.058166033802	135
386	559195	54.063166033802	105
386	560979	54.068166033802	122
386	562792	54.073166033802	101
386	564615	54.078166033802	156
386	567099	54.083166033802	242
386	568962	54.088166033802	67
386	570616	54.093166033802	131
386	572306	54.098166033802	52
386	573441	54.103166033802	54
386	574870	54.108166033802	178
386	575654	54.113166033802	102
386	577169	54.118166033802	222
386	578689	54.123166033802	196
386	579579	54.128166033802	98
386	580034	54.133166033802	64
386	581115	54.138166033802	41
386	581119	54.143166033802	0
386	582936	54.151292610193	200
386	584302	54.156292610193	89
386	585312	54.161292610193	122
386	585808	54.166292610193	72
386	587403	54.171292610193	214
386	588167	54.176292610193	99
386	588305	54.181292610193	0
386	589032	54.187781844731	114
386	589737	54.192781844731	87
386	590523	54.197781844731	104
386	590524	54.202781844731	0
386	591310	54.211724327141	104
386	591797	54.216724327141	0
386	592864	54.221724327141	0
386	593713	54.226724327141	53
386	593714	54.231724327141	0
386	594916	54.254943429463	0
386	595298	54.259943429463	0
386	772599	70.00501	0
386	773311	70.01001	0
386	787377	71.00501	0
386	788037	71.01001	0
386	801576	72.00501	0
386	802242	72.01001	0
386	803086	72.01501	0
386	804350	72.02001	0
386	805290	72.02501	0
386	805992	72.03001	0
386	808193	72.055324139267	0
386	808789	72.060324139267	0
386	821637	73.00501	0
386	822351	73.01001	1
386	823069	73.01501	0
386	823775	73.02001	0
386	825045	73.02501	0
386	826784	73.037444107445	134
386	829690	73.042444107445	105
386	831962	73.047444107445	118
386	835522	73.052444107445	98
386	838156	73.057444107445	40
386	840401	73.062444107445	73
386	842772	73.067444107445	182
386	844539	73.072444107445	56
386	846632	73.077444107445	88
386	847641	73.082444107445	81
386	849316	73.087444107445	128
386	851184	73.092444107445	140
386	852815	73.097444107445	124
386	854150	73.102444107445	83
386	855027	73.107444107445	85
386	856321	73.112444107445	54
386	857679	73.117444107445	98
386	858460	73.122444107445	101
386	860042	73.127444107445	235
386	860989	73.132444107445	79
386	861971	73.137444107445	82
386	862931	73.142444107445	84
386	864892	73.147444107445	221
386	865909	73.152444107445	116
386	868181	73.157444107445	287
386	869666	73.162444107445	42
386	871114	73.167444107445	155
386	872669	73.172444107445	91
386	873881	73.177444107445	136
386	875094	73.182444107445	98
386	876282	73.187444107445	114
386	877038	73.192444107445	0
386	877917	73.19939487223	96
386	879430	73.20439487223	158
386	880180	73.20939487223	70
386	881557	73.21439487223	195
386	881558	73.21939487223	0
386	882977	73.230866094354	176
386	883116	73.235866094354	0
386	883942	73.241114547028	112
386	884793	73.246114547028	117
386	885200	73.251114547028	55
386	885201	73.256114547028	0
386	885812	73.273961264641	69
386	885813	73.278961264641	0
386	886639	73.311547730558	112
386	886640	73.316547730558	0
386	957831	80.005	1
386	957972	80.01	0
386	959664	80.015063214937	217
386	962248	80.020063214937	140
386	965526	80.025063214937	34
386	968235	80.030063214937	42
386	970603	80.035063214937	30
386	973099	80.040063214937	76
386	976027	80.045063214937	104
386	977778	80.050063214937	77
386	979705	80.055063214937	98
386	981478	80.060063214937	179
386	983018	80.065063214937	96
386	984850	80.070063214937	155
386	986662	80.075063214937	103
386	988664	80.080063214937	140
386	989827	80.085063214937	82
386	991476	80.090063214937	181
386	993000	80.095063214937	127
386	994498	80.100063214937	190
386	995841	80.105063214937	158
386	997316	80.110063214937	161
386	998610	80.115063214937	109
386	1000328	80.120063214937	152
386	1001775	80.125063214937	145
386	1003102	80.130063214937	158
386	1003897	80.135063214937	77
386	1005518	80.140063214937	119
386	1007393	80.145063214937	207
386	1008567	80.150063214937	147
386	1009993	80.155063214937	144
386	1011445	80.160063214937	119
386	1012939	80.165063214937	150
386	1013746	80.170063214937	81
386	1014318	80.175063214937	87
386	1015315	80.180063214937	120
386	1015957	80.185063214937	75
386	1017604	80.190063214937	225
386	1018215	80.195063214937	92
386	1019167	80.200063214937	76
386	1019854	80.205063214937	57
386	1020386	80.210063214937	80
386	1020390	80.215063214937	0
386	1021677	80.223183119871	81
386	1022694	80.228183119871	93
386	1022698	80.233183119871	0
386	1024226	80.240437721262	200
386	1024227	80.245437721262	0
387	11005	40.005	0
387	11146	40.01	0
387	12994	40.016456446436	0
387	16045	40.021456446436	0
387	19207	40.026456446436	0
387	22535	40.031456446436	0
387	24720	40.036456446436	0
387	26775	40.041456446436	0
387	28780	40.046456446436	0
387	31565	40.051456446436	0
387	33139	40.056456446436	0
387	34872	40.061456446436	0
387	36702	40.066456446436	0
387	38765	40.071456446436	0
387	40569	40.076456446436	0
387	42174	40.081456446436	0
387	44137	40.086456446436	0
387	45429	40.091456446436	0
387	46908	40.096456446436	0
387	47981	40.101456446436	0
387	48873	40.106456446436	0
387	50667	40.111456446436	0
387	52039	40.116456446436	0
387	53435	40.121456446436	0
387	54231	40.126456446436	0
387	56131	40.131456446436	0
387	57438	40.136456446436	0
387	58552	40.141456446436	0
387	59226	40.146456446436	0
387	60217	40.151456446436	0
387	61189	40.156456446436	0
387	62689	40.161456446436	0
387	63405	40.166456446436	0
387	64249	40.171456446436	0
387	65104	40.176456446436	0
387	65105	40.181456446436	0
387	66943	40.195333692289	0
387	67799	40.200333692289	0
387	68335	40.205333692289	0
387	68922	40.210333692289	0
387	68926	40.215333692289	0
387	69828	40.222609684017	0
387	70525	40.227609684017	0
387	70526	40.232609684017	0
387	71311	40.242907438874	0
387	72087	40.247907438874	0
387	72088	40.252907438874	0
387	72954	40.303517043483	0
387	72955	40.308517043483	0
387	74429	43.005	0
387	75138	43.01	0
387	76088	44.005	0
387	76548	44.01	0
387	77716	45.005	0
387	78391	45.01	0
387	79252	46.005	0
387	80016	46.01	0
387	81499	46.015	0
387	84498	46.02	0
387	88690	46.025	0
387	93245	46.03	0
387	95449	46.035	0
387	97810	46.04	0
387	99997	46.045	0
387	102058	46.05	0
387	103667	46.055	0
387	105835	46.06	0
387	107725	46.065	0
387	109283	46.07	0
387	110883	46.075	0
387	112502	46.08	0
387	113943	46.085	0
387	115610	46.09	0
387	117107	46.095	0
387	118107	46.1	0
387	119643	46.105	0
387	120303	46.11	0
387	122118	46.117302096388	0
387	123077	46.122302096388	0
387	124390	46.127302096388	0
387	125832	46.132302096388	0
387	126955	46.137302096388	0
387	128212	46.142302096388	0
387	128225	46.147302096388	0
387	130035	46.15496234487	0
387	130994	46.15996234487	0
387	131672	46.16496234487	0
387	132372	46.16996234487	0
387	133127	46.17496234487	0
387	133819	46.17996234487	0
387	133820	46.18496234487	0
387	135522	46.200098601268	0
387	136382	46.205098601268	0
387	136386	46.210098601268	0
387	138134	46.218210720955	0
387	138135	46.223210720955	0
387	138771	46.238745739868	0
387	138772	46.243745739868	0
387	139701	47.005	0
387	139711	47.01	0
387	141501	47.017683079327	0
387	144398	47.022683079327	0
387	147881	47.027683079327	0
387	152516	47.032683079327	0
387	154459	47.037683079327	0
387	156794	47.042683079327	0
387	159023	47.047683079327	0
387	160724	47.052683079327	0
387	162733	47.057683079327	0
387	164317	47.062683079327	0
387	165881	47.067683079327	0
387	167048	47.072683079327	0
387	168436	47.077683079327	0
387	169804	47.082683079327	0
387	171444	47.087683079327	0
387	173137	47.092683079327	0
387	174869	47.097683079327	0
387	176350	47.102683079327	0
387	177370	47.107683079327	0
387	178493	47.112683079327	0
387	180127	47.117683079327	0
387	181766	47.122683079327	0
387	182466	47.127683079327	0
387	183892	47.132683079327	0
387	185003	47.137683079327	0
387	186454	47.142683079327	0
387	188133	47.147683079327	0
387	188140	47.152683079327	0
387	190137	47.159590837165	0
387	191453	47.164590837165	0
387	192328	47.169590837165	0
387	193901	47.174590837165	0
387	194729	47.179590837165	0
387	194864	47.184590837165	0
387	196241	47.190147241651	0
387	196376	47.195147241651	0
387	198086	47.201943067845	0
387	198821	47.206943067845	0
387	199494	47.211943067845	0
387	200998	47.216943067845	0
387	201133	47.221943067845	0
387	201725	47.227595863176	0
387	201726	47.232595863176	0
387	202671	48.005	0
387	203349	48.01	0
387	206189	49.005	0
387	206894	49.01	0
387	206898	49.015	0
387	208338	49.026512766677	0
387	211385	49.031512766677	0
387	214429	49.036512766677	0
387	217029	49.041512766677	0
387	219589	49.046512766677	0
387	221955	49.051512766677	0
387	224122	49.056512766677	0
387	227619	49.061512766677	0
387	229095	49.066512766677	0
387	231546	49.071512766677	0
387	233050	49.076512766677	0
387	234513	49.081512766677	0
387	235052	49.086512766677	0
387	236607	49.091512766677	0
387	238280	49.096512766677	0
387	239776	49.101512766677	0
387	241424	49.106512766677	0
387	242399	49.111512766677	0
387	244159	49.116512766677	0
387	245937	49.121512766677	0
387	247487	49.126512766677	0
387	248344	49.131512766677	0
387	250050	49.136512766677	0
387	250911	49.141512766677	0
387	251875	49.146512766677	0
387	252822	49.151512766677	0
387	254460	49.156512766677	0
387	255255	49.161512766677	0
387	256610	49.166512766677	0
387	257409	49.171512766677	0
387	258340	49.176512766677	0
387	259158	49.181512766677	0
387	260372	49.186512766677	0
387	261272	49.191512766677	0
387	262662	49.196512766677	0
387	263546	49.201512766677	0
387	264402	49.206512766677	0
387	266064	49.211512766677	0
387	267584	49.216512766677	0
387	268267	49.221512766677	0
387	268963	49.226512766677	0
387	269749	49.23505008333	0
387	270017	49.24005008333	0
387	270686	49.245165582055	0
387	271388	49.250165582055	0
387	271389	49.255165582055	0
387	272220	49.296033933997	0
387	272221	49.301033933997	0
387	272978	50.005	0
387	273941	50.01	0
387	273952	50.015	0
387	275677	50.022162369577	0
387	279475	50.027162369577	0
387	283620	50.032162369577	0
387	286018	50.037162369577	0
387	288770	50.042162369577	0
387	291151	50.047162369577	0
387	293314	50.052162369577	0
387	295297	50.057162369577	0
387	297876	50.062162369577	0
387	299814	50.067162369577	0
387	301343	50.072162369577	0
387	303165	50.077162369577	0
387	305257	50.082162369577	0
387	306533	50.087162369577	0
387	308093	50.092162369577	0
387	310328	50.097162369577	0
387	311818	50.102162369577	0
387	312798	50.107162369577	0
387	313962	50.112162369577	0
387	315449	50.117162369577	0
387	316493	50.122162369577	0
387	318055	50.127162369577	0
387	319140	50.132162369577	0
387	319718	50.137162369577	0
387	321444	50.144218377399	0
387	322140	50.149218377399	0
387	323615	50.154218377399	0
387	325079	50.159218377399	0
387	325819	50.164218377399	0
387	326800	50.169218377399	0
387	328057	50.174218377399	0
387	328947	50.179218377399	0
387	330575	50.184218377399	0
387	331416	50.189218377399	0
387	331554	50.194218377399	0
387	333126	50.200194975139	0
387	333853	50.205194975139	0
387	334560	50.210194975139	0
387	335527	50.215194975139	0
387	336223	50.220194975139	0
387	336670	50.225194975139	0
387	336671	50.230194975139	0
387	337432	50.242420215434	0
387	338128	50.247420215434	0
387	338129	50.252420215434	0
387	339082	51.005	0
387	339753	51.01	0
387	340333	51.015	0
387	341997	51.02	0
387	344721	51.025	0
387	348108	51.03	0
387	350325	51.035	0
387	353021	51.04	0
387	355601	51.045	0
387	357869	51.05	0
387	359861	51.055	0
387	361788	51.06	0
387	363147	51.065	0
387	365393	51.07	0
387	366587	51.075	0
387	368332	51.08	0
387	369357	51.085	0
387	370988	51.09	0
387	371896	51.095	0
387	373750	51.1	0
387	375438	51.105	0
387	376555	51.11	0
387	377695	51.115	0
387	378637	51.12	0
387	380240	51.125	0
387	381830	51.13	0
387	382950	51.135	0
387	384153	51.14	0
387	385567	51.145	0
387	387055	51.15	0
387	388317	51.155	0
387	388464	51.16	0
387	389769	51.165728727884	0
387	390635	51.170728727884	0
387	391502	51.175728727884	0
387	392936	51.180728727884	0
387	393622	51.185728727884	0
387	395230	51.194548685389	0
387	396802	51.199548685389	0
387	397592	51.204548685389	0
387	399006	51.209548685389	0
387	400555	51.214548685389	0
387	401228	51.219548685389	0
387	401229	51.224548685389	0
387	401990	51.241367628831	0
387	402050	51.246367628831	0
387	403548	51.253740069546	0
387	403549	51.258740069546	0
387	404205	51.268309106796	0
387	404206	51.273309106796	0
387	405687	51.293537828107	0
387	405688	51.298537828107	0
387	406815	52.005	0
387	407526	52.01	0
387	407529	52.015	0
387	409667	52.025919635929	0
387	413020	52.030919635929	0
387	416939	52.035919635929	0
387	419758	52.040919635929	0
387	422927	52.045919635929	0
387	425109	52.050919635929	0
387	427249	52.055919635929	0
387	429528	52.060919635929	0
387	431680	52.065919635929	0
387	433478	52.070919635929	0
387	435513	52.075919635929	0
387	437120	52.080919635929	0
387	438738	52.085919635929	0
387	440206	52.090919635929	0
387	441173	52.095919635929	0
387	442650	52.100919635929	0
387	444355	52.105919635929	0
387	445212	52.110919635929	0
387	446971	52.115919635929	0
387	447113	52.120919635929	0
387	449427	52.126389974056	0
387	450371	52.131389974056	0
387	452306	52.136389974056	0
387	453804	52.141389974056	0
387	455680	52.146389974056	0
387	456720	52.151389974056	0
387	457742	52.156389974056	0
387	459167	52.161389974056	0
387	460039	52.166389974056	0
387	461447	52.175575018796	0
387	462193	52.180575018796	0
387	463848	52.191547451441	0
387	464606	52.196547451441	0
387	465603	52.201547451441	0
387	466319	52.206547451441	0
387	467035	52.211547451441	0
387	468455	52.216547451441	0
387	469252	52.221547451441	0
387	470105	52.226547451441	0
387	470243	52.231547451441	0
387	470810	52.238286690547	0
387	470811	52.243286690547	0
387	471657	52.253010772316	0
387	471658	52.258010772316	0
387	472789	53.005	0
387	472925	53.01	0
387	473511	53.015286036118	0
387	474085	53.020286036118	0
387	475133	53.025286036118	0
387	477879	53.030286036118	0
387	481210	53.035286036118	0
387	484320	53.040286036118	0
387	487417	53.045286036118	0
387	491200	53.050286036118	0
387	493572	53.055286036118	0
387	495529	53.060286036118	0
387	497154	53.065286036118	0
387	499615	53.070286036118	0
387	501505	53.075286036118	0
387	502638	53.080286036118	0
387	504392	53.085286036118	0
387	505977	53.090286036118	0
387	507007	53.095286036118	0
387	508024	53.100286036118	0
387	509591	53.105286036118	0
387	511167	53.110286036118	0
387	511931	53.115286036118	0
387	513415	53.120286036118	0
387	515226	53.125286036118	0
387	516847	53.130286036118	0
387	518086	53.135286036118	0
387	518941	53.140286036118	0
387	520617	53.145286036118	0
387	521268	53.150286036118	0
387	522107	53.155286036118	0
387	522856	53.160286036118	0
387	523701	53.165286036118	0
387	525171	53.170286036118	0
387	525791	53.175286036118	0
387	526615	53.180286036118	0
387	527361	53.185286036118	0
387	529099	53.193499964585	0
387	529372	53.198499964585	0
387	530270	53.203983365758	0
387	532011	53.208983365758	0
387	532576	53.213983365758	0
387	533364	53.218983365758	0
387	533365	53.223983365758	0
387	534158	53.255037964601	0
387	534159	53.260037964601	0
387	534946	54.005	0
387	535193	54.01	0
387	536043	54.018166033802	0
387	537528	54.023166033802	0
387	540761	54.028166033802	0
387	544597	54.033166033802	0
387	547361	54.038166033802	0
387	549256	54.043166033802	0
387	552179	54.048166033802	0
387	554316	54.053166033802	0
387	556584	54.058166033802	0
387	559195	54.063166033802	0
387	560979	54.068166033802	0
387	562792	54.073166033802	0
387	564615	54.078166033802	0
387	567099	54.083166033802	0
387	568962	54.088166033802	0
387	570616	54.093166033802	0
387	572306	54.098166033802	0
387	573441	54.103166033802	0
387	574870	54.108166033802	0
387	575654	54.113166033802	0
387	577169	54.118166033802	0
387	578689	54.123166033802	0
387	579579	54.128166033802	0
387	580034	54.133166033802	0
387	581115	54.138166033802	0
387	581119	54.143166033802	0
387	582936	54.151292610193	0
387	584302	54.156292610193	0
387	585312	54.161292610193	0
387	585808	54.166292610193	0
387	587403	54.171292610193	0
387	588167	54.176292610193	0
387	588305	54.181292610193	0
387	589032	54.187781844731	0
387	589737	54.192781844731	0
387	590523	54.197781844731	0
387	590524	54.202781844731	0
387	591310	54.211724327141	0
387	591797	54.216724327141	0
387	592864	54.221724327141	0
387	593713	54.226724327141	0
387	593714	54.231724327141	0
387	594916	54.254943429463	0
387	595298	54.259943429463	0
387	772599	70.00501	0
387	773311	70.01001	0
387	787377	71.00501	0
387	788037	71.01001	0
387	801576	72.00501	0
387	802242	72.01001	0
387	803086	72.01501	0
387	804350	72.02001	0
387	805290	72.02501	0
387	805992	72.03001	0
387	808193	72.055324139267	0
387	808789	72.060324139267	0
387	821637	73.00501	0
387	822351	73.01001	0
387	823069	73.01501	0
387	823775	73.02001	0
387	825045	73.02501	0