file 215143 1353323295                                          
version 2
run AODVScenario_1f-13-20121119-11:07:58-596
attr configname AODVScenario_1f
attr datetime 20121119-11:07:58
attr experiment AODVScenario_1f
attr inifile AODV.ini
attr iterationvars $numNodes=63
attr iterationvars2 "$numNodes=63, $repetition=0"
attr measurement $numNodes=63
attr network csma802154net
attr numNodes 63
attr processid 596
attr repetition 0
attr replication #0
attr resultdir results
attr runnumber 13
attr seedset 13

vector 263  csma802154net.dataCentricNetworkMan  RREQPacketFrequency  ETV
vector 264  csma802154net.dataCentricNetworkMan  RERRPacketFrequency  ETV
vector 265  csma802154net.dataCentricNetworkMan  DiscoveryPacketFrequency  ETV
vector 266  csma802154net.dataCentricNetworkMan  RegisterPacketFrequency  ETV
vector 267  csma802154net.dataCentricNetworkMan  RReplyPacketFrequency  ETV
vector 268  csma802154net.dataCentricNetworkMan  AODVDataPacketFrequency  ETV
vector 275  csma802154net.dataCentricNetworkMan  pendingRegistrationVector  ETV
vector 274  csma802154net.dataCentricNetworkMan  pendingRREQVector  ETV
vector 269  csma802154net.dataCentricNetworkMan  AODVDataLineBreakVector  ETV
vector 272  csma802154net.dataCentricNetworkMan  PendingDataPacketsVector  ETV
vector 282  csma802154net.fixhost[6].udpApp  "End-to-end delay"  ETV
vector 260  csma802154net.dataCentricNetworkMan  dataPacketE2EDelay  ETV
vector 285  csma802154net.fixhost[9].udpApp  "End-to-end delay"  ETV
vector 284  csma802154net.fixhost[8].udpApp  "End-to-end delay"  ETV
vector 292  csma802154net.fixhost[16].udpApp  "End-to-end delay"  ETV
vector 298  csma802154net.fixhost[22].udpApp  "End-to-end delay"  ETV
vector 317  csma802154net.fixhost[41].udpApp  "End-to-end delay"  ETV
vector 277  csma802154net.fixhost[1].udpApp  "End-to-end delay"  ETV
vector 280  csma802154net.fixhost[4].udpApp  "End-to-end delay"  ETV
vector 286  csma802154net.fixhost[10].udpApp  "End-to-end delay"  ETV
vector 283  csma802154net.fixhost[7].udpApp  "End-to-end delay"  ETV
vector 288  csma802154net.fixhost[12].udpApp  "End-to-end delay"  ETV
vector 289  csma802154net.fixhost[13].udpApp  "End-to-end delay"  ETV
260	2160 7004 425542 1495426 70.04304406891 7273.017236050427 156 0.007076014759 0.150596082282 4.929930672875 0.22373298072571
263	9164 30778 506 1495601 1.005 7273.02501 1098 0 79 1419 54223
264	39942 30733 506 1495601 1.005 7273.02501 1098 0 0 0 0
265	70675 30733 506 1495601 1.005 7273.02501 1098 0 0 0 0
266	101408 30733 506 1495601 1.005 7273.02501 1098 0 1 12 12
267	132141 30745 506 1495601 1.005 7273.02501 1098 0 68 1095 30767
268	162886 30749 506 1495601 1.005 7273.02501 1098 0 67 998 24906
269	193635 28 58322 58322 44.71037796305 44.71037796305 1 1 1 1 1
272	193663 12706 423178 1495426 70 7273.017236050427 416 0 3 520 1040
274	206369 1190 17292 385655 43.50001 54.607259142347 43 0 1 17 17
275	207559 580 17287 417037 43.5 54.892848453276 24 0 1 12 12
277	208139 588 431226 1492504 72.096524043252 7272.017556043254 13 0.016596043254 0.096524043252 0.396076562296 0.017904038439187
280	208727 588 431924 1493198 72.112876067371 7272.028004067373 13 0.022956067373 0.112876067371 0.540124875843 0.029393032602932
282	209315 580 425542 1487098 70.04304406891 7270.02985206891 13 0.01943606891 0.045460068911 0.372836895837 0.011522056840745
283	209895 588 433113 1494733 73.008036014759 7273.008676014758 13 0.007076014759 0.009956014759 0.111508191866 0.00096617181947862
284	210483 588 426565 1487844 70.059212109751 7270.036564109755 13 0.030236109754 0.059212109751 0.5537334268 0.024502949020561
285	211071 584 425886 1488176 70.04879612168 7270.054804121683 13 0.029916121683 0.088580121683 0.603973581866 0.031215717113219
286	211655 588 432277 1493897 72.150596082282 7272.035004082284 13 0.024196082284 0.150596082282 0.687725069684 0.049018602600302
288	212243 568 433460 1495080 73.01151603382 7273.013116033819 13 0.01087603382 0.01471603382 0.170828439657 0.0022588175227434
289	212811 588 433806 1495426 73.016276050428 7273.017236050427 13 0.015316050428 0.019156050428 0.23110865556 0.0041215358365198
292	213399 578 428008 1489631 71.029076042521 7271.017876042521 13 0.015956042521 0.029076042521 0.243908552768 0.0047004004702689
298	213977 588 428678 1490298 71.038916081339 7271.026436081338 13 0.024516081339 0.052284081336 0.429141057397 0.015589545859041
317	214565 578 429342 1490965 71.04552410487 7271.036884104869 13 0.03208410487 0.10962810487 0.588965363301 0.032540112600718
