file 157049 1349106847                                          
version 2
run AODVScenario_1d-0-20121001-16:50:50-3916
attr configname AODVScenario_1d
attr datetime 20121001-16:50:50
attr experiment AODVScenario_1d
attr inifile omnetpp.ini
attr iterationvars ""
attr iterationvars2 $repetition=0
attr measurement ""
attr network csma802154net
attr processid 3916
attr repetition 0
attr replication #0
attr resultdir results
attr runnumber 0
attr seedset 0

vector 386  csma802154net.dataCentricNetworkMan  RREQPacketFrequency  ETV
vector 387  csma802154net.dataCentricNetworkMan  DiscoveryPacketFrequency  ETV
vector 388  csma802154net.dataCentricNetworkMan  RegisterPacketFrequency  ETV
vector 389  csma802154net.dataCentricNetworkMan  RReplyPacketFrequency  ETV
vector 390  csma802154net.dataCentricNetworkMan  AODVDataPacketFrequency  ETV
vector 398  csma802154net.fixhost[6].udpApp  "End-to-end delay"  ETV
vector 383  csma802154net.dataCentricNetworkMan  dataPacketE2EDelay  ETV
vector 412  csma802154net.fixhost[20].udpApp  "End-to-end delay"  ETV
vector 401  csma802154net.fixhost[9].udpApp  "End-to-end delay"  ETV
vector 403  csma802154net.fixhost[11].udpApp  "End-to-end delay"  ETV
383	1156 170 612203 624723 20.042876037286 22.10082807867 4 0.040636043737 0.10082807867 0.251144227988 0.018118727612993
386	1326 31373 1135 640830 2.005 29.055678237599 1079 0 186 15049 1023029
387	32699 31042 1135 640830 2.005 29.055678237599 1079 0 0 0 0
388	63741 31042 1135 640830 2.005 29.055678237599 1079 0 1 12 12
389	94783 31048 1135 640830 2.005 29.055678237599 1079 0 32 481 4727
390	125831 31048 1135 640830 2.005 29.055678237599 1079 0 32 402 4334
398	156879 43 612203 612203 20.042876037286 20.042876037286 1 0.042876037286 0.042876037286 0.042876037286 0.0018383545733505
401	156922 43 616675 616675 21.040636043737 21.040636043737 1 0.040636043737 0.040636043737 0.040636043737 0.0016512880505954
403	156965 41 624723 624723 22.10082807867 22.10082807867 1 0.10082807867 0.10082807867 0.10082807867 0.010166301448284
412	157006 43 612922 612922 20.066804068295 20.066804068295 1 0.066804068295 0.066804068295 0.066804068295 0.004462783540763
