file 274377 1353024580                                          
version 2
run AODVScenario_1f-45-20121116-00:08:58-3792
attr configname AODVScenario_1f
attr datetime 20121116-00:08:58
attr experiment AODVScenario_1f
attr inifile AODV.ini
attr iterationvars $numNodes=95
attr iterationvars2 "$numNodes=95, $repetition=0"
attr measurement $numNodes=95
attr network csma802154net
attr numNodes 95
attr processid 3792
attr repetition 0
attr replication #0
attr resultdir results
attr runnumber 45
attr seedset 45

vector 391  csma802154net.dataCentricNetworkMan  RREQPacketFrequency  ETV
vector 392  csma802154net.dataCentricNetworkMan  RERRPacketFrequency  ETV
vector 393  csma802154net.dataCentricNetworkMan  DiscoveryPacketFrequency  ETV
vector 394  csma802154net.dataCentricNetworkMan  RegisterPacketFrequency  ETV
vector 395  csma802154net.dataCentricNetworkMan  RReplyPacketFrequency  ETV
vector 396  csma802154net.dataCentricNetworkMan  AODVDataPacketFrequency  ETV
vector 403  csma802154net.dataCentricNetworkMan  pendingRegistrationVector  ETV
vector 402  csma802154net.dataCentricNetworkMan  pendingRREQVector  ETV
vector 400  csma802154net.dataCentricNetworkMan  PendingDataPacketsVector  ETV
vector 409  csma802154net.fixhost[5].udpApp  "End-to-end delay"  ETV
vector 388  csma802154net.dataCentricNetworkMan  dataPacketE2EDelay  ETV
vector 412  csma802154net.fixhost[8].udpApp  "End-to-end delay"  ETV
vector 413  csma802154net.fixhost[9].udpApp  "End-to-end delay"  ETV
vector 410  csma802154net.fixhost[6].udpApp  "End-to-end delay"  ETV
vector 407  csma802154net.fixhost[3].udpApp  "End-to-end delay"  ETV
vector 414  csma802154net.fixhost[10].udpApp  "End-to-end delay"  ETV
vector 405  csma802154net.fixhost[1].udpApp  "End-to-end delay"  ETV
vector 418  csma802154net.fixhost[14].udpApp  "End-to-end delay"  ETV
vector 417  csma802154net.fixhost[13].udpApp  "End-to-end delay"  ETV
vector 420  csma802154net.fixhost[16].udpApp  "End-to-end delay"  ETV
388	1941 5944 1140654 2725689 70.009636027138 7273.032764097944 130 0.007716027139 0.059004129283 3.341049567218 0.10464648771732
391	7885 41285 753 2725942 1.005 7273.04001 1431 0 122 2568 172656
392	49170 41237 753 2725942 1.005 7273.04001 1431 0 0 0 0
393	90407 41237 753 2725942 1.005 7273.04001 1431 0 0 0 0
394	131644 41237 753 2725942 1.005 7273.04001 1431 0 1 12 12
395	172881 41253 753 2725942 1.005 7273.04001 1431 0 120 1877 99857
396	214134 41256 753 2725942 1.005 7273.04001 1431 0 119 1454 82984
400	255390 11249 1139813 2725689 70 7273.032764097944 364 0 3 390 702
402	266639 1265 39430 1052434 43.50001 54.572635159537 45 0 1 15 15
403	267904 529 39425 1123150 43.5 54.918521801443 22 0 3 23 43
405	268433 595 1148698 2720951 72.024556073355 7272.034756105843 13 0.019116073355 0.034756105843 0.336909148537 0.0089927223924941
407	269028 595 1145256 2716035 71.025804056096 7271.021644056095 13 0.016276056096 0.047740056096 0.273484729242 0.0066106610345374
409	269623 595 1140654 2712398 70.009636027138 7270.008036027137 13 0.007716027139 0.012836027139 0.1294283528 0.0013168545929753
410	270218 595 1144256 2716531 71.019756075139 7271.024484075138 13 0.019436075139 0.051612075139 0.365652976798 0.011094871541032
412	270813 595 1141136 2712880 70.014716050665 7270.013116050665 13 0.012796050667 0.016956050667 0.190668658663 0.0028163369689567
413	271408 595 1141607 2713351 70.018516074764 7270.018196074764 13 0.017236074766 0.021076074766 0.24902897195 0.0047853680054249
414	272003 593 1145781 2717530 71.029172081295 7271.040052081294 13 0.027004081294 0.056372081293 0.485981056823 0.019246945910659
417	272596 591 1153487 2724196 73.023596072621 7273.019116072621 13 0.018156072619 0.026404072621 0.294300944069 0.0067220672726236
418	273187 595 1150169 2721442 72.050404097055 7272.059004129283 13 0.024164097055 0.059004129283 0.497325455075 0.020817616572834
420	273782 595 1155118 2725689 73.054524097944 7273.032764097944 13 0.025724097944 0.055732097943 0.518269273261 0.022243043425781
