file 267965 1353499088                                          
version 2
run AODVScenario_1f-52-20121121-11:57:34-2668
attr configname AODVScenario_1f
attr datetime 20121121-11:57:34
attr experiment AODVScenario_1f
attr inifile AODV.ini
attr iterationvars $numNodes=102
attr iterationvars2 "$numNodes=102, $repetition=0"
attr measurement $numNodes=102
attr network csma802154net
attr numNodes 102
attr processid 2668
attr repetition 0
attr replication #0
attr resultdir results
attr runnumber 52
attr seedset 52

vector 419  csma802154net.dataCentricNetworkMan  RREQPacketFrequency  ETV
vector 420  csma802154net.dataCentricNetworkMan  RERRPacketFrequency  ETV
vector 421  csma802154net.dataCentricNetworkMan  DiscoveryPacketFrequency  ETV
vector 422  csma802154net.dataCentricNetworkMan  RegisterPacketFrequency  ETV
vector 423  csma802154net.dataCentricNetworkMan  RReplyPacketFrequency  ETV
vector 424  csma802154net.dataCentricNetworkMan  AODVDataPacketFrequency  ETV
vector 431  csma802154net.dataCentricNetworkMan  pendingRegistrationVector  ETV
vector 430  csma802154net.dataCentricNetworkMan  pendingRREQVector  ETV
vector 428  csma802154net.dataCentricNetworkMan  PendingDataPacketsVector  ETV
vector 439  csma802154net.fixhost[7].udpApp  "End-to-end delay"  ETV
vector 416  csma802154net.dataCentricNetworkMan  dataPacketE2EDelay  ETV
vector 437  csma802154net.fixhost[5].udpApp  "End-to-end delay"  ETV
vector 434  csma802154net.fixhost[2].udpApp  "End-to-end delay"  ETV
vector 441  csma802154net.fixhost[9].udpApp  "End-to-end delay"  ETV
vector 446  csma802154net.fixhost[14].udpApp  "End-to-end delay"  ETV
vector 447  csma802154net.fixhost[15].udpApp  "End-to-end delay"  ETV
vector 459  csma802154net.fixhost[27].udpApp  "End-to-end delay"  ETV
vector 442  csma802154net.fixhost[10].udpApp  "End-to-end delay"  ETV
vector 443  csma802154net.fixhost[11].udpApp  "End-to-end delay"  ETV
vector 456  csma802154net.fixhost[24].udpApp  "End-to-end delay"  ETV
vector 435  csma802154net.fixhost[3].udpApp  "End-to-end delay"  ETV
416	2017 6535 1052953 2796854 70.016916069005 7273.06390015951 143 0.011516029799 0.103836130148 5.170290873857 0.22973075696113
419	8552 39859 809 2797093 1.005 7273.07390015951 1375 0 126 2108 151342
420	48411 39820 809 2797093 1.005 7273.07390015951 1375 0 0 0 0
421	88231 39820 809 2797093 1.005 7273.07390015951 1375 0 0 0 0
422	128051 39820 809 2797093 1.005 7273.07390015951 1375 0 1 12 12
423	167871 39836 809 2797093 1.005 7273.07390015951 1375 0 108 1677 82263
424	207707 39838 809 2797093 1.005 7273.07390015951 1375 0 104 1414 69098
428	247545 12099 1051038 2796854 70 7273.06390015951 390 0 3 455 871
430	259644 1228 38122 1023716 43.50001 54.940954018919 44 0 1 18 18
431	260872 558 38117 1031331 43.5 54.976140492455 23 0 2 26 40
434	261430 595 1054017 2780464 70.023924029797 7270.024812029799 13 0.011516029799 0.024812029799 0.215052387381 0.0037923716804699
435	262025 591 1069419 2796854 73.051644094291 7273.06390015951 13 0.024516094291 0.06390015951 0.458557649716 0.017821258075513
437	262616 595 1053474 2779436 70.019084059409 7270.017236059409 13 0.014996059408 0.041484059409 0.290692772308 0.0073767355470229
439	263211 595 1052953 2779958 70.016916069005 7270.021964069005 13 0.016844069006 0.043972069006 0.328660897065 0.0093218323184309
441	263806 595 1057161 2783621 71.022636069388 7271.024236069389 13 0.021036069389 0.045924069389 0.372020902051 0.011258175867884
442	264401 595 1063289 2790196 72.103836130148 7272.048124097536 13 0.021036064926 0.103836130148 0.488605170155 0.024690887462404
443	264996 595 1068340 2796332 73.042924156497 7273.053764188752 13 0.034004123886 0.067812156496 0.651654129801 0.034179706223739
446	265591 595 1058183 2784643 71.047524086433 7271.051044086433 13 0.020076086433 0.054492086434 0.467949123634 0.019163665868791
447	266186 595 1062185 2788869 72.031836134875 7272.028284127862 13 0.024164095252 0.053924095253 0.506645559817 0.020954231568424
456	266781 595 1068877 2795784 73.047652171802 7273.047116204057 13 0.039436204058 0.091420171802 0.763262310296 0.048832215740791
459	267376 589 1062728 2789412 72.036276166683 7272.03496415967 13 0.03496415967 0.081580126637 0.627189971633 0.032339676607659
