version 2
run AODVScenario_1f-19-20121115-23:57:04-948
attr configname AODVScenario_1f
attr datetime 20121115-23:57:04
attr experiment AODVScenario_1f
attr inifile AODV.ini
attr iterationvars $numNodes=69
attr iterationvars2 "$numNodes=69, $repetition=0"
attr measurement $numNodes=69
attr network csma802154net
attr numNodes 69
attr processid 948
attr repetition 0
attr replication #0
attr resultdir results
attr runnumber 19
attr seedset 19

vector 287  csma802154net.dataCentricNetworkMan  RREQPacketFrequency  ETV
vector 288  csma802154net.dataCentricNetworkMan  RERRPacketFrequency  ETV
vector 289  csma802154net.dataCentricNetworkMan  DiscoveryPacketFrequency  ETV
vector 290  csma802154net.dataCentricNetworkMan  RegisterPacketFrequency  ETV
vector 291  csma802154net.dataCentricNetworkMan  RReplyPacketFrequency  ETV
vector 292  csma802154net.dataCentricNetworkMan  AODVDataPacketFrequency  ETV
vector 299  csma802154net.dataCentricNetworkMan  pendingRegistrationVector  ETV
vector 298  csma802154net.dataCentricNetworkMan  pendingRREQVector  ETV
vector 296  csma802154net.dataCentricNetworkMan  PendingDataPacketsVector  ETV
vector 305  csma802154net.fixhost[5].udpApp  "End-to-end delay"  ETV
vector 284  csma802154net.dataCentricNetworkMan  dataPacketE2EDelay  ETV
vector 320  csma802154net.fixhost[20].udpApp  "End-to-end delay"  ETV
vector 323  csma802154net.fixhost[23].udpApp  "End-to-end delay"  ETV
vector 307  csma802154net.fixhost[7].udpApp  "End-to-end delay"  ETV
vector 314  csma802154net.fixhost[14].udpApp  "End-to-end delay"  ETV
vector 312  csma802154net.fixhost[12].udpApp  "End-to-end delay"  ETV
vector 311  csma802154net.fixhost[11].udpApp  "End-to-end delay"  ETV
vector 306  csma802154net.fixhost[6].udpApp  "End-to-end delay"  ETV
vector 303  csma802154net.fixhost[3].udpApp  "End-to-end delay"  ETV
vector 309  csma802154net.fixhost[9].udpApp  "End-to-end delay"  ETV
284	456126	70.007076015786	0.007076015786
284	456481	70.01055602952	0.01055602952
284	456832	70.014676042544	0.014676042544
284	458871	71.022676055146	0.022676055146
284	460021	71.034964111262	0.034964111262
284	460369	71.036892072442	0.036892072442
284	462374	72.022316079265	0.022316079265
284	462711	72.029676057705	0.029676057705
284	465514	73.028284072317	0.028284072317
284	465891	73.033012086961	0.033012086961
284	551103	670.009956015787	0.009956015787
284	551459	670.015036029522	0.015036029522
284	551810	670.018836042546	0.018836042546
284	553484	671.014676055146	0.014676055146
284	554224	671.023844072442	0.023844072442
284	555373	671.037772111262	0.037772111262
284	557344	672.021676057704	0.021676057704
284	557694	672.028324079264	0.028324079264
284	560262	673.031236072317	0.031236072317
284	561016	673.05516408696	0.05516408696
284	646228	1270.009316015787	0.009316015787
284	646583	1270.013116029522	0.013116029522
284	646935	1270.018196042546	0.018196042546
284	648610	1271.018836055146	0.018836055146
284	649349	1271.027684072441	0.027684072441
284	651037	1271.062660111261	0.062660111261
284	653018	1272.020396079263	0.020396079263
284	653354	1272.023524057703	0.023524057703
284	655853	1273.028676072318	0.028676072318
284	656700	1273.057972086962	0.057972086962
284	741981	1870.008356015787	0.008356015787
284	742336	1870.012476029522	0.012476029522
284	742688	1870.016916042546	0.016916042546
284	744734	1871.020684055145	0.020684055145
284	745106	1871.022956072442	0.022956072442
284	746255	1871.036172111262	0.036172111262
284	748235	1872.027756079264	0.027756079264
284	748569	1872.030316057704	0.030316057704
284	751139	1873.025476072317	0.025476072317
284	751893	1873.051004086961	0.051004086961
284	837105	2470.009956015787	0.009956015787
284	837460	2470.014396029521	0.014396029521
284	837812	2470.019796042545	0.019796042545
284	840232	2471.023524072441	0.023524072441
284	841013	2471.035012055146	0.035012055146
284	841387	2471.038412111261	0.038412111261
284	843358	2472.020716057705	0.020716057705
284	843708	2472.026084079265	0.026084079265
284	846130	2473.023236072318	0.023236072318
284	846873	2473.029564086962	0.029564086962
284	932086	3070.010596015787	0.010596015787
284	932441	3070.015996029522	0.015996029522
284	932793	3070.021396042546	0.021396042546
284	934836	3071.021004055145	0.021004055145
284	935207	3071.023916072442	0.023916072442
284	936356	3071.039764111262	0.039764111262
284	938337	3072.021356079265	0.021356079265
284	938674	3072.027684057705	0.027684057705
284	941241	3073.023236072318	0.023236072318
284	941994	3073.046844086961	0.046844086961
284	1027275	3670.008996015787	0.008996015787
284	1027630	3670.012796029522	0.012796029522
284	1027982	3670.016276042546	0.016276042546
284	1030024	3671.018196055145	0.018196055145
284	1030776	3671.024804072441	0.024804072441
284	1031548	3671.031052111261	0.031052111261
284	1033529	3672.028716079265	0.028716079265
284	1034358	3672.055204057705	0.055204057705
284	1036962	3673.027396072317	0.027396072317
284	1037511	3673.031196093244	0.031196093244
284	1122724	4270.011556015787	0.011556015787
284	1123078	4270.015996029522	0.015996029522
284	1123430	4270.019476042546	0.019476042546
284	1125104	4271.015956055145	0.015956055145
284	1126213	4271.024556072441	0.024556072441
284	1126982	4271.030236111259	0.030236111259
284	1128963	4272.021356079262	0.021356079262
284	1129300	4272.025124057702	0.025124057702
284	1131715	4273.02483608696	0.02483608696
284	1132484	4273.038772072314	0.038772072314
284	1217689	4870.007396015787	0.007396015787
284	1218044	4870.011836029522	0.011836029522
284	1218396	4870.015316042546	0.015316042546
284	1220074	4871.020436055146	0.020436055146
284	1220807	4871.027364072442	0.027364072442
284	1221955	4871.039444111262	0.039444111262
284	1223932	4872.020716079264	0.020716079264
284	1224268	4872.023916057704	0.023916057704
284	1226683	4873.025476086962	0.025476086962
284	1227451	4873.034932072318	0.034932072318
284	1312725	5470.007396015787	0.007396015787
284	1313080	5470.012796029522	0.012796029522
284	1313432	5470.017236042546	0.017236042546
284	1315477	5471.023564055146	0.023564055146
284	1316018	5471.030884072441	0.030884072441
284	1317694	5471.082572111262	0.082572111262
284	1319675	5472.020076079265	0.020076079265
284	1320011	5472.023524057705	0.023524057705
284	1322510	5473.025796072318	0.025796072318
284	1323358	5473.05445208696	0.05445208696
284	1408570	6070.008036015787	0.008036015787
284	1408925	6070.011516029522	0.011516029522
284	1409277	6070.015316042546	0.015316042546
284	1410952	6071.016916055146	0.016916055146
284	1411692	6071.026084072442	0.026084072442
284	1412841	6071.040332111261	0.040332111261
284	1414811	6072.020716057705	0.020716057705
284	1415327	6072.046244079265	0.046244079265
284	1417913	6073.027076072318	0.027076072318
284	1419050	6073.053244086962	0.053244086962
284	1504262	6670.008036015786	0.008036015786
284	1504617	6670.012796029521	0.012796029521
284	1504969	6670.016596042545	0.016596042545
284	1506644	6671.016276055144	0.016276055144
284	1507383	6671.023204072441	0.023204072441
284	1508532	6671.03777211126	0.03777211126
284	1510513	6672.024236079264	0.024236079264
284	1510851	6672.031524057705	0.031524057705
284	1513266	6673.021636086961	0.021636086961
284	1514034	6673.033012072317	0.033012072317
284	1599308	7270.009316015787	0.009316015787
284	1599663	7270.012796029522	0.012796029522
284	1600015	7270.016596042546	0.016596042546
284	1601690	7271.018836055146	0.018836055146
284	1602433	7271.02768407244	0.02768407244
284	1603578	7271.039052111261	0.039052111261
284	1605555	7272.021036079265	0.021036079265
284	1605891	7272.023916057705	0.023916057705
284	1608306	7273.026436086958	0.026436086958
284	1609070	7273.033404072315	0.033404072315
287	793	1.005	39
287	1217	1.01	42
287	2125	1.015	22
287	3554	1.02	57
287	5344	1.025	46
287	6801	1.03	39
287	8274	1.035	50
287	8790	1.04	42
287	9872	1.045	41
287	10135	1.05	23
287	10818	1.055	51
287	11105	1.06	29
287	11327	1.065	16
287	11547	1.07	30
287	11831	1.075	29
287	12145	1.08	35
287	12146	1.085	0
287	12433	1.125666512071	29
287	12434	1.130666512071	0
287	18432	43.505	1
287	18517	43.51	0
287	19664	43.515029442684	20
287	20673	43.520029442684	0
287	21943	43.530699005094	0
287	22113	43.535699005094	0
287	22394	43.540699005094	0
287	22920	43.545699005094	0
287	23802	43.550699005094	0
287	24389	43.555699005094	0
287	25205	43.562937187797	0
287	25924	43.567937187797	0
287	27924	43.586860891801	0
287	28506	43.591860891801	0
287	29130	43.59781503035	0
287	29785	43.60281503035	0
287	31114	43.614668914596	0
287	31436	43.619668914596	0
287	32064	43.624668914596	0
287	32731	43.630609672088	0
287	33382	43.635609672088	0
287	34469	43.646647052844	0
287	34964	43.651647052844	0
287	35535	43.656647052844	0
287	36118	43.661647052844	0
287	36270	43.666647052844	0
287	36956	43.671836158816	0
287	37301	43.676836158816	0
287	38034	43.681836158816	0
287	38758	43.686836158816	0
287	39487	43.694123060378	0
287	39826	43.699123060378	0
287	40162	43.704123060378	0
287	40582	43.709123060378	0
287	41169	43.714123060378	0
287	41170	43.719123060378	0
287	41498	43.730754308252	0
287	41499	43.735754308252	0
287	42170	43.745785460965	0
287	42530	43.750785460965	0
287	42862	43.755785460965	0
287	43185	43.760785460965	0
287	43264	43.765785460965	0
287	43517	43.771856458255	0
287	43518	43.776856458255	0
287	43673	44.505	1
287	44124	44.51	19
287	45199	44.515	0
287	45879	44.52	0
287	46519	44.525	0
287	46798	44.53	0
287	47064	44.535	0
287	47657	44.54	0
287	48084	44.545	0
287	48691	44.550313702319	0
287	49267	44.555313702319	0
287	49735	44.562055360324	0
287	50352	44.567055360324	0
287	51120	44.575030286128	0
287	51614	44.580030286128	0
287	53402	44.595148414703	0
287	53991	44.600148414703	0
287	54515	44.613239615238	0
287	55009	44.618239615238	0
287	57719	44.639100425642	0
287	58224	44.644100425642	0
287	60992	44.677033213084	0
287	61423	44.682033213084	0
287	62385	44.692297424402	0
287	62670	44.697297424402	0
287	63284	44.702297424402	0
287	63706	44.707297424402	0
287	64627	44.716181076404	0
287	64956	44.721181076404	0
287	65369	44.726181076404	0
287	66044	44.731674001856	0
287	66543	44.736674001856	0
287	67139	44.743095385436	0
287	67382	44.748095385436	0
287	68384	44.762745239471	0
287	68477	44.767745239471	0
287	69348	44.775618064961	0
287	69821	44.780618064961	0
287	69979	44.785618064961	0
287	70671	44.795846311563	0
287	70672	44.800846311563	0
287	71002	44.813918637474	0
287	71003	44.818918637474	0
287	71658	44.833336505995	0
287	71903	44.838336505995	0
287	72219	45.505	1
287	72754	45.51	21
287	73717	45.515	0
287	74380	45.52	0
287	75232	45.527393859989	0
287	75920	45.532393859989	0
287	76407	45.537393859989	0
287	77205	45.54255653525	0
287	77968	45.54755653525	0
287	78475	45.55255653525	0
287	79077	45.55755653525	0
287	79505	45.56255653525	0
287	80511	45.571438391956	0
287	80788	45.576438391956	0
287	81152	45.581438391956	0
287	81677	45.586438391956	0
287	82200	45.591438391956	0
287	82722	45.596438391956	0
287	83250	45.601438391956	0
287	83685	45.606438391956	0
287	84213	45.611438391956	0
287	84627	45.616438391956	0
287	86306	45.633949987315	0
287	86900	45.638949987315	0
287	86906	45.643949987315	0
287	87670	45.656053187228	0
287	88016	45.661053187228	0
287	88767	45.666053187228	0
287	89112	45.671053187228	0
287	89454	45.676053187228	0
287	89953	45.681053187228	0
287	90426	45.686053187228	0
287	90864	45.691053187228	0
287	91101	45.696053187228	0
287	92053	45.708301459966	0
287	92625	45.713301459966	0
287	93185	45.718301459966	0
287	94612	45.740954792163	0
287	95109	45.745954792163	0
287	95188	45.750954792163	0
287	95459	45.7565765366	0
287	95460	45.7615765366	0
287	96056	45.774246867706	0
287	96147	45.779246867706	0
287	96478	45.786953539493	0
287	96479	45.791953539493	0
287	96814	45.868737558789	0
287	96815	45.873737558789	0
287	96973	46.505	1
287	97634	46.51	27
287	98816	46.515	0
287	100036	46.52	0
287	101176	46.525	0
287	102087	46.53	0
287	102450	46.535	0
287	103378	46.54	0
287	103987	46.545	0
287	104750	46.55	0
287	105308	46.555	0
287	105805	46.56	0
287	106481	46.565	0
287	107144	46.57	0
287	107814	46.575	0
287	109916	46.591524264034	0
287	110717	46.596524264034	0
287	111420	46.601524264034	0
287	111851	46.606524264034	0
287	113594	46.620980570478	0
287	114352	46.625980570478	0
287	115331	46.633778336548	0
287	116071	46.638778336548	0
287	116571	46.643778336548	0
287	120150	46.672898384617	0
287	120850	46.677898384617	0
287	121479	46.682898384617	0
287	122305	46.687898384617	0
287	122832	46.692898384617	0
287	123494	46.697898384617	0
287	124012	46.702898384617	0
287	124364	46.707898384617	0
287	125157	46.715162033057	0
287	125767	46.720162033057	0
287	126444	46.725162033057	0
287	126878	46.730173231662	0
287	127374	46.735173231662	0
287	127749	46.74103710642	0
287	128282	46.74603710642	0
287	128979	46.75103710642	0
287	129421	46.75603710642	0
287	130122	46.76103710642	0
287	130745	46.76603710642	0
287	131453	46.776023449115	0
287	132094	46.781023449115	0
287	132623	46.786023449115	0
287	132797	46.791023449115	0
287	134732	46.820098363037	0
287	135185	46.825098363037	0
287	135885	46.83298831335	0
287	136066	46.83798831335	0
287	136406	46.84298831335	0
287	137203	46.852830411301	0
287	137653	46.857830411301	0
287	137654	46.862830411301	0
287	138340	46.880202612063	0
287	138341	46.885202612063	0
287	139063	46.902698715103	0
287	139419	46.907698715103	0
287	139420	46.912698715103	0
287	139566	47.505	1
287	139651	47.51	0
287	141055	47.515568116912	37
287	142301	47.520568116912	0
287	143219	47.525568116912	0
287	144968	47.535070066094	0
287	145819	47.540070066094	0
287	146521	47.545070066094	0
287	147123	47.550070066094	0
287	147676	47.555070066094	0
287	149830	47.566728095605	0
287	150515	47.571728095605	0
287	151144	47.576728095605	0
287	152030	47.58329961154	0
287	152557	47.58829961154	0
287	153688	47.59329961154	0
287	154306	47.59829961154	0
287	155888	47.610763180586	0
287	156889	47.615763180586	0
287	157773	47.62200420505	0
287	158631	47.62700420505	0
287	160084	47.636877568256	0
287	160922	47.641877568256	0
287	162426	47.653177817435	0
287	163042	47.658177817435	0
287	163985	47.663968950405	0
287	164515	47.668968950405	0
287	166761	47.685483841499	0
287	167257	47.690483841499	0
287	167983	47.697667409917	0
287	168916	47.702667409917	0
287	170368	47.712411203752	0
287	170963	47.717411203752	0
287	171920	47.723400132947	0
287	172689	47.728400132947	0
287	173514	47.733400132947	0
287	174056	47.738400132947	0
287	174675	47.743400132947	0
287	175747	47.750761071299	0
287	176431	47.755761071299	0
287	177360	47.764539841936	0
287	178186	47.769539841936	0
287	178882	47.774539841936	0
287	179579	47.779539841936	0
287	180589	47.786708631008	0
287	181521	47.791708631008	0
287	182195	47.796708631008	0
287	183083	47.801708631008	0
287	183927	47.806708631008	0
287	184689	47.811708631008	0
287	185408	47.816708631008	0
287	186344	47.825013307529	0
287	187003	47.830013307529	0
287	189053	47.847225820003	0
287	189475	47.852225820003	0
287	190322	47.858053316185	0
287	190682	47.863053316185	0
287	191150	47.868053316185	0
287	192187	47.873053316185	0
287	192964	47.878053316185	0
287	193404	47.883053316185	0
287	194598	47.900859409915	0
287	195310	47.905859409915	0
287	195902	47.910859409915	0
287	196529	47.915859409915	0
287	196687	47.920859409915	0
287	197054	47.925859409915	0
287	197642	47.930859409915	0
287	198257	47.935859409915	0
287	198919	47.940859409915	0
287	199171	47.945859409915	0
287	199620	47.957956304903	0
287	199621	47.962956304903	0
287	200036	47.996723831787	0
287	200452	48.001723831787	0
287	200817	48.038072351474	0
287	200818	48.043072351474	0
287	201040	48.505	14
287	201629	48.51	0
287	202385	48.515	0
287	203151	48.52	0
287	203780	48.525	0
287	204229	48.53	0
287	204661	48.535	0
287	205036	48.54	0
287	205714	48.545	0
287	206369	48.55	0
287	206814	48.555	0
287	207342	48.56	0
287	207900	48.567063861553	0
287	208171	48.572063861553	0
287	208942	48.577063861553	0
287	209424	48.582063861553	0
287	210558	48.594055888626	0
287	210729	48.599055888626	0
287	212105	48.615232739861	0
287	212534	48.620232739861	0
287	213631	48.630219340046	0
287	213965	48.635219340046	0
287	215354	48.658900866373	0
287	215436	48.663900866373	0
287	215723	48.67055255752	0
287	215724	48.67555255752	0
287	216069	48.689486463442	0
287	216070	48.694486463442	0
287	216754	48.713365021071	0
287	217083	48.718365021071	0
287	217084	48.723365021071	0
287	217825	48.770832609821	0
287	218269	48.775832609821	0
287	218732	48.780832609821	0
287	218891	48.785832609821	0
287	219057	49.505	1
287	219067	49.51	0
287	220294	49.517330494198	15
287	221319	49.522330494198	0
287	222160	49.527330494198	0
287	222508	49.532330494198	0
287	222695	49.537330494198	0
287	223422	49.542330494198	0
287	224197	49.54736412279	0
287	224796	49.55236412279	0
287	225245	49.55736412279	0
287	225996	49.56236412279	0
287	227261	49.573521021076	0
287	227963	49.578521021076	0
287	228896	49.585451973205	0
287	229598	49.590451973205	0
287	230079	49.595451973205	0
287	230336	49.600552217766	0
287	230674	49.605552217766	0
287	231430	49.616508150155	0
287	231785	49.621508150155	0
287	232976	49.635165250752	0
287	233476	49.640165250752	0
287	233969	49.645165250752	0
287	234680	49.650165250752	0
287	235221	49.655165250752	0
287	235657	49.660165250752	0
287	236343	49.667778084806	0
287	236344	49.672778084806	0
287	237025	49.708738966266	0
287	237026	49.713738966266	0
287	237370	49.733623703802	0
287	237371	49.738623703802	0
287	237536	50.505	1
287	237858	50.51	32
287	239023	50.515	0
287	240415	50.52	0
287	241223	50.525	0
287	241746	50.53	0
287	245028	50.549883429131	0
287	245604	50.554883429131	0
287	246482	50.559883429131	0
287	247343	50.564883429131	0
287	248167	50.573075499178	0
287	248915	50.578075499178	0
287	249676	50.583075499178	0
287	250687	50.589702330098	0
287	251620	50.594702330098	0
287	252484	50.599702330098	0
287	253368	50.604702330098	0
287	253810	50.609702330098	0
287	255635	50.623211354596	0
287	256360	50.628211354596	0
287	257268	50.633211354596	0
287	259470	50.647713993886	0
287	260112	50.652713993886	0
287	260867	50.657713993886	0
287	261653	50.662713993886	0
287	262893	50.672308627005	0
287	263358	50.677308627005	0
287	263988	50.682308627005	0
287	264597	50.687308627005	0
287	265307	50.693611122119	0
287	265771	50.698611122119	0
287	266726	50.703611122119	0
287	267350	50.708611122119	0
287	269686	50.723548438762	0
287	270153	50.728548438762	0
287	270651	50.733548438762	0
287	271684	50.738548438762	0
287	272295	50.743548438762	0
287	272647	50.748548438762	0
287	273410	50.753548438762	0
287	274372	50.763748704901	0
287	275157	50.768748704901	0
287	275786	50.773748704901	0
287	276763	50.778748704901	0
287	277398	50.783748704901	0
287	277774	50.788748704901	0
287	278201	50.793748704901	0
287	278810	50.799244713711	0
287	279170	50.804244713711	0
287	279521	50.809244713711	0
287	281157	50.821656409386	0
287	281630	50.826656409386	0
287	282003	50.831656409386	0
287	282615	50.836656409386	0
287	283287	50.842443408272	0
287	283976	50.847443408272	0
287	285056	50.858908778955	0
287	285675	50.863908778955	0
287	285972	50.868908778955	0
287	286323	50.873908778955	0
287	286324	50.878908778955	0
287	286405	50.884849507854	0
287	286686	50.889849507854	0
287	286687	50.894849507854	0
287	287047	50.929955013767	0
287	287048	50.934955013767	0
287	287215	51.505	1
287	287300	51.51	0
287	288018	51.516640278979	15
287	288869	51.521640278979	0
287	289378	51.526640278979	0
287	289712	51.531640278979	0
287	289905	51.536640278979	0
287	290381	51.541640278979	0
287	291011	51.546640278979	0
287	291509	51.551640278979	0
287	292732	51.559995782147	0
287	293282	51.564995782147	0
287	293898	51.569995782147	0
287	294331	51.577533656262	0
287	294944	51.582533656262	0
287	295717	51.587533656262	0
287	296232	51.594576696644	0
287	296652	51.599576696644	0
287	297073	51.604576696644	0
287	298131	51.613543317294	0
287	298732	51.618543317294	0
287	299239	51.623543317294	0
287	299498	51.628543317294	0
287	300725	51.640008324945	0
287	301315	51.645008324945	0
287	302582	51.655077673352	0
287	302590	51.660077673352	0
287	303461	51.667560711058	0
287	304048	51.672560711058	0
287	304487	51.677679327324	0
287	304994	51.682679327324	0
287	305343	51.689598541715	0
287	305957	51.694598541715	0
287	306392	51.699598541715	0
287	307948	51.714609989472	0
287	307949	51.719609989472	0
287	308399	51.735410844305	0
287	308745	51.740410844305	0
287	309044	51.746293700967	0
287	309045	51.751293700967	0
287	309227	52.505	1
287	309789	52.51	24
287	310941	52.515	0
287	311748	52.52	0
287	312942	52.525	0
287	314069	52.53	0
287	314641	52.535	0
287	315285	52.54	0
287	316211	52.546896891064	0
287	317165	52.551896891064	0
287	317834	52.556896891064	0
287	318701	52.561896891064	0
287	319463	52.566896891064	0
287	320004	52.571896891064	0
287	321051	52.576896891064	0
287	321533	52.581896891064	0
287	322204	52.586896891064	0
287	322837	52.591896891064	0
287	323414	52.596896891064	0
287	324375	52.601896891064	0
287	324833	52.606896891064	0
287	325765	52.614369386669	0
287	326563	52.619369386669	0
287	327377	52.624369386669	0
287	328258	52.629369386669	0
287	329708	52.638302945234	0
287	329795	52.643302945234	0
287	330517	52.648592039262	0
287	331261	52.653592039262	0
287	331837	52.658592039262	0
287	332505	52.663592039262	0
287	333681	52.673738204978	0
287	334062	52.678738204978	0
287	334498	52.683738204978	0
287	335293	52.688993399105	0
287	336029	52.693993399105	0
287	336778	52.698993399105	0
287	337331	52.70526932508	0
287	337821	52.71026932508	0
287	338193	52.71526932508	0
287	339090	52.723164330044	0
287	339247	52.728164330044	0
287	339808	52.738010925915	0
287	339892	52.743010925915	0
287	340258	52.748245787585	0
287	340700	52.753245787585	0
287	340897	52.758245787585	0
287	341956	52.783740358618	0
287	342047	52.788740358618	0
287	342403	52.793740358618	0
287	342686	52.798740358618	0
287	342938	52.803740358618	0
287	343390	52.808740358618	0
287	343391	52.813740358618	0
287	343743	52.860082217934	0
287	343744	52.865082217934	0
287	343927	53.505	1
287	343934	53.51	0
287	345275	53.518405649335	32
287	346219	53.523405649335	0
287	347513	53.531315793484	0
287	348523	53.536315793484	0
287	349118	53.541315793484	0
287	350240	53.546315793484	0
287	351280	53.551315793484	0
287	352579	53.559474656629	0
287	352877	53.564474656629	0
287	353543	53.569474656629	0
287	354539	53.574474656629	0
287	355401	53.583727647093	0
287	356142	53.588727647093	0
287	357600	53.600730263276	0
287	358338	53.605730263276	0
287	359150	53.611728094118	0
287	359545	53.616728094118	0
287	360591	53.626790401461	0
287	361037	53.631790401461	0
287	362704	53.64401181127	0
287	363692	53.64901181127	0
287	364560	53.65401181127	0
287	365187	53.65901181127	0
287	367107	53.676919661196	0
287	367668	53.681919661196	0
287	369384	53.692874825902	0
287	369903	53.697874825902	0
287	370395	53.702874825902	0
287	371011	53.707874825902	0
287	371742	53.712874825902	0
287	372216	53.717874825902	0
287	373297	53.724297535911	0
287	374218	53.729297535911	0
287	374787	53.734297535911	0
287	375624	53.742005776705	0
287	376433	53.747005776705	0
287	377000	53.752005776705	0
287	380407	53.773668788276	0
287	381162	53.778668788276	0
287	381903	53.783668788276	0
287	382387	53.788668788276	0
287	382994	53.793668788276	0
287	383449	53.798668788276	0
287	385956	53.819898266606	0
287	386328	53.824898266606	0
287	386711	53.829898266606	0
287	387331	53.834898266606	0
287	388056	53.839898266606	0
287	389070	53.847783546007	0
287	389516	53.852783546007	0
287	390206	53.857783546007	0
287	390586	53.862783546007	0
287	391127	53.867783546007	0
287	391569	53.872783546007	0
287	392034	53.877783546007	0
287	392422	53.882783546007	0
287	392427	53.887783546007	0
287	392994	53.894800118214	0
287	393371	53.899800118214	0
287	393931	53.904800118214	0
287	394307	53.909800118214	0
287	394308	53.914800118214	0
287	394957	53.931098425572	0
287	395150	53.936098425572	0
287	395445	53.941130445333	0
287	395446	53.946130445333	0
287	395689	54.505	1
287	396496	54.51	33
287	398133	54.515	0
287	399482	54.52	0
287	400328	54.525	0
287	400949	54.53	0
287	401821	54.535	0
287	402570	54.54	0
287	403688	54.546507564528	0
287	404561	54.551507564528	0
287	405313	54.556507564528	0
287	406220	54.561507564528	0
287	406997	54.566507564528	0
287	407640	54.571507564528	0
287	409651	54.584792220574	0
287	410269	54.589792220574	0
287	411125	54.595784234833	0
287	412505	54.600784234833	0
287	413051	54.605784234833	0
287	415380	54.62357686065	0
287	416333	54.62857686065	0
287	418612	54.643305414866	0
287	419642	54.648305414866	0
287	420346	54.653305414866	0
287	422852	54.674890916338	0
287	423570	54.679890916338	0
287	426034	54.698503673125	0
287	426805	54.703503673125	0
287	427693	54.708503673125	0
287	428367	54.713503673125	0
287	429775	54.721508209266	0
287	430514	54.726508209266	0
287	431672	54.731578863528	0
287	432653	54.736578863528	0
287	433366	54.741578863528	0
287	434743	54.751189253495	0
287	435191	54.756189253495	0
287	435745	54.761189253495	0
287	436374	54.766189253495	0
287	437147	54.771189253495	0
287	437935	54.777378119379	0
287	438746	54.782378119379	0
287	439291	54.787378119379	0
287	440019	54.792378119379	0
287	440756	54.797378119379	0
287	441338	54.802378119379	0
287	442226	54.807378119379	0
287	442625	54.812378119379	0
287	443175	54.817378119379	0
287	443805	54.822395468779	0
287	444754	54.827395468779	0
287	445306	54.832395468779	0
287	445873	54.837395468779	0
287	446386	54.842395468779	0
287	447226	54.847567934723	0
287	448011	54.852567934723	0
287	448651	54.857567934723	0
287	449011	54.862567934723	0
287	449016	54.867567934723	0
287	449457	54.872567934723	0
287	450167	54.877567934723	0
287	450817	54.882567934723	0
287	450818	54.887567934723	0
287	451180	54.896465396079	0
287	451269	54.901465396079	0
287	451945	54.927544112939	0
287	452409	54.932544112939	0
287	452767	54.941519850513	0
287	452768	54.946519850513	0
287	453127	54.957812286656	0
287	453128	54.962812286656	0
287	455949	70.00501	0
287	456379	70.01001	0
287	456909	70.01501	0
287	457006	70.02001	0
287	457542	71.00501	0
287	457936	71.01001	0
287	458197	71.01501	0
287	458567	71.02001	0
287	459136	71.02501	0
287	459517	71.03001	0
287	460022	71.03501	0
287	460562	71.04001	0
287	460563	71.04501	0
287	461070	72.00501	0
287	461458	72.01001	0
287	461851	72.01501	0
287	462197	72.02001	0
287	462541	72.02501	0
287	462788	72.03001	0
287	462882	72.03501	0
287	463393	73.00501	0
287	463856	73.01001	0
287	464541	73.01501	0
287	464938	73.02001	0
287	465317	73.02501	0
287	465692	73.03001	0
287	466076	73.03501	0
287	466077	73.04001	0
287	550923	670.00501	0
287	551104	670.01001	0
287	551357	670.01501	0
287	551983	670.020036029522	0
287	551984	670.025036029522	0
287	552523	671.00501	0
287	552995	671.01001	0
287	553561	671.01501	0
287	553747	671.02001	0
287	554420	671.025364062323	0
287	554797	671.030364062323	0
287	555185	671.035364062323	0
287	555538	671.040364062323	0
287	555539	671.045364062323	0
287	556046	672.00501	0
287	556437	672.01001	0
287	556827	672.01501	0
287	557176	672.02001	0
287	557514	672.02501	0
287	557861	672.03001	0
287	557862	672.03501	0
287	558185	673.00501	0
287	558449	673.01001	0
287	559145	673.015276028524	0
287	559525	673.020276028524	0
287	560065	673.025276028524	0
287	560147	673.030276028524	0
287	560440	673.036236072317	0
287	560441	673.041236072317	0
287	560820	673.053164075834	0
287	561201	673.058164075834	0
287	561202	673.063164075834	0
287	645950	1270.00501	0
287	646400	1270.01001	0
287	646755	1270.01501	0
287	647108	1270.02001	0
287	647109	1270.02501	0
287	647526	1271.00501	0
287	647868	1271.01001	0
287	648121	1271.01501	0
287	648794	1271.020036039016	0
287	649158	1271.025036039016	0
287	649700	1271.030036039016	0
287	649701	1271.035036039016	0
287	650849	1271.060060082745	0
287	651202	1271.065060082745	0
287	651203	1271.070060082745	0
287	651713	1272.00501	0
287	652176	1272.01001	0
287	652491	1272.01501	0
287	652915	1272.02001	0
287	653524	1272.02501	0
287	653525	1272.03001	0
287	653848	1273.00501	0
287	654112	1273.01001	0
287	654500	1273.015276028525	0
287	654890	1273.020276028525	0
287	655471	1273.025276028525	0
287	656125	1273.030276028525	0
287	656126	1273.035276028525	0
287	656882	1273.058532075836	0
287	656886	1273.063532075836	0
287	741801	1870.00501	0
287	742159	1870.01001	0
287	742511	1870.01501	0
287	742861	1870.02001	0
287	742862	1870.02501	0
287	743398	1871.00501	0
287	743795	1871.01001	0
287	744165	1871.01501	0
287	744614	1871.02001	0
287	745377	1871.02501	0
287	745754	1871.03001	0
287	746142	1871.03501	0
287	746420	1871.04001	0
287	746421	1871.04501	0
287	746928	1872.00501	0
287	747316	1872.01001	0
287	747706	1872.01501	0
287	747707	1872.02001	0
287	748399	1872.028316051752	0
287	748739	1872.033316051752	0
287	748740	1872.038316051752	0
287	749248	1873.00501	0
287	749636	1873.01001	0
287	750026	1873.01501	0
287	750409	1873.02001	0
287	751024	1873.02501	0
287	751317	1873.03001	0
287	751318	1873.03501	0
287	751772	1873.050924075835	0
287	752078	1873.055924075835	0
287	752079	1873.060924075835	0
287	836751	2470.00501	0
287	837106	2470.01001	0
287	837629	2470.01501	0
287	837889	2470.02001	0
287	837986	2470.02501	0
287	838522	2471.00501	0
287	838919	2471.01001	0
287	839292	2471.01501	0
287	839739	2471.02001	0
287	840426	2471.02501	0
287	840629	2471.03001	0
287	841009	2471.03501	0
287	841552	2471.040012055146	0
287	841553	2471.045012055146	0
287	842063	2472.00501	0
287	842451	2472.01001	0
287	842841	2472.01501	0
287	843266	2472.02001	0
287	843606	2472.02501	0
287	843875	2472.03001	0
287	843876	2472.03501	0
287	844387	2473.00501	0
287	844775	2473.01001	0
287	845240	2473.01501	0
287	845821	2473.02001	0
287	846557	2473.02501	0
287	846950	2473.03001	0
287	847059	2473.03501	0
287	931905	3070.00501	0
287	931984	3070.01001	0
287	932339	3070.015596015787	0
287	932691	3070.020596015787	0
287	932966	3070.025596015787	0
287	932967	3070.030596015787	0
287	933503	3071.00501	0
287	933900	3071.01001	0
287	934276	3071.01501	0
287	934719	3071.02001	0
287	935400	3071.02501	0
287	935780	3071.03001	0
287	936165	3071.03501	0
287	936433	3071.04001	0
287	936522	3071.04501	0
287	937029	3072.00501	0