file 184790 1351820057                                          
version 2
run AODVScenario_1g-0-20121102-01:32:47-2788
attr configname AODVScenario_1g
attr datetime 20121102-01:32:47
attr experiment AODVScenario_1g
attr inifile AODV.ini
attr iterationvars ""
attr iterationvars2 $repetition=0
attr measurement ""
attr network csma802154net
attr processid 2788
attr repetition 0
attr replication #0
attr resultdir results
attr runnumber 0
attr seedset 0

vector 511  csma802154net.dataCentricNetworkMan  RREQPacketFrequency  ETV
vector 512  csma802154net.dataCentricNetworkMan  RERRPacketFrequency  ETV
vector 513  csma802154net.dataCentricNetworkMan  DiscoveryPacketFrequency  ETV
vector 514  csma802154net.dataCentricNetworkMan  RegisterPacketFrequency  ETV
vector 515  csma802154net.dataCentricNetworkMan  RReplyPacketFrequency  ETV
vector 516  csma802154net.dataCentricNetworkMan  AODVDataPacketFrequency  ETV
vector 521  csma802154net.dataCentricNetworkMan  pendingRegistrationVector  ETV
vector 520  csma802154net.dataCentricNetworkMan  pendingRREQVector  ETV
vector 517  csma802154net.dataCentricNetworkMan  AODVDataLineBreakVector  ETV
vector 518  csma802154net.dataCentricNetworkMan  PendingDataPacketsVector  ETV
vector 541  csma802154net.fixhost[19].udpApp  "End-to-end delay"  ETV
vector 508  csma802154net.dataCentricNetworkMan  dataPacketE2EDelay  ETV
vector 542  csma802154net.fixhost[20].udpApp  "End-to-end delay"  ETV
vector 528  csma802154net.fixhost[6].udpApp  "End-to-end delay"  ETV
vector 539  csma802154net.fixhost[17].udpApp  "End-to-end delay"  ETV
vector 534  csma802154net.fixhost[12].udpApp  "End-to-end delay"  ETV
vector 531  csma802154net.fixhost[9].udpApp  "End-to-end delay"  ETV
vector 538  csma802154net.fixhost[16].udpApp  "End-to-end delay"  ETV
vector 533  csma802154net.fixhost[11].udpApp  "End-to-end delay"  ETV
vector 532  csma802154net.fixhost[10].udpApp  "End-to-end delay"  ETV
vector 525  csma802154net.fixhost[3].udpApp  "End-to-end delay"  ETV
vector 524  csma802154net.fixhost[2].udpApp  "End-to-end delay"  ETV
vector 523  csma802154net.fixhost[1].udpApp  "End-to-end delay"  ETV
508	2106 7062 604684 2862427 70.013756059794 7273.075732158915 156 0.013756059794 0.182484075334 6.991676481889 0.41457475291296
511	9168 26203 1005 2862764 1.005 7273.077732110206 923 0 240 35157 3855775
512	35371 25665 1005 2862764 1.005 7273.077732110206 923 0 0 0 0
513	61036 25665 1005 2862764 1.005 7273.077732110206 923 0 0 0 0
514	86701 25665 1005 2862764 1.005 7273.077732110206 923 0 1 12 12
515	112366 25665 1005 2862764 1.005 7273.077732110206 923 0 2 66 110
516	138031 25665 1005 2862764 1.005 7273.077732110206 923 0 4 631 1201
517	163696 30 524816 524816 13.362686033945 13.362686033945 1 1 1 1 1
518	163726 12865 603023 2862427 70 7273.075732158915 416 0 3 520 1040
520	176591 590 57965 664795 3.008366021223 73.135992995625 20 0 1 10 10
521	177181 547 56702 527290 3 14.013116042046 24 0 1 12 12
523	177728 591 676028 2856870 73.182484075334 7273.032156092762 13 0.029596092762 0.182484075334 0.668045188471 0.055773534489049
524	178319 583 675373 2859363 73.179921039043 7273.04416412395 13 0.039116123951 0.179921039043 0.884466489417 0.079437642026899
525	178902 593 625254 2862427 73.047756124693 7273.075732158915 13 0.043556158916 0.081740158913 0.791638031671 0.050976289761039
528	179495 573 605892 2836830 70.09215604399 7270.02512406883 13 0.02071606883 0.09215604399 0.441860869944 0.020521820295841
531	180068 593 610588 2841005 71.089236050272 7271.022316061098 13 0.018476061099 0.089236050272 0.377116783454 0.015493375558237
532	180661 593 617515 2850505 72.055732075743 7272.055444076388 13 0.026076076388 0.062660076385 0.502540992402 0.021120107504257
533	181254 593 616308 2849137 72.037804130315 7272.034356104345 13 0.034356104345 0.077340104344 0.70093340906 0.039837632998713
534	181847 587 609956 2842277 71.029036083 7271.029884093826 13 0.028852093827 0.084780093827 0.572213208913 0.030323071308219
538	182434 581 615681 2851852 72.034324120157 7272.084380120802 13 0.034324120157 0.086940120803 0.79580556978 0.052814023985261
539	183015 593 609301 2842875 71.024236100995 7271.032372111821 13 0.023556111823 0.076852111823 0.499645442862 0.022390577730038
541	183608 593 604684 2836088 70.013756059794 7270.020396084634 13 0.013756059794 0.054812084633 0.319589075397 0.0090038803084188
542	184201 589 605281 2837591 70.018196086342 7270.05004411118 13 0.018196086342 0.062132111181 0.437821420518 0.016882796946985
