file 213336 1353323237                                          
version 2
run AODVScenario_1f-10-20121119-11:07:02-3764
attr configname AODVScenario_1f
attr datetime 20121119-11:07:02
attr experiment AODVScenario_1f
attr inifile AODV.ini
attr iterationvars $numNodes=60
attr iterationvars2 "$numNodes=60, $repetition=0"
attr measurement $numNodes=60
attr network csma802154net
attr numNodes 60
attr processid 3764
attr repetition 0
attr replication #0
attr resultdir results
attr runnumber 10
attr seedset 10

vector 251  csma802154net.dataCentricNetworkMan  RREQPacketFrequency  ETV
vector 252  csma802154net.dataCentricNetworkMan  RERRPacketFrequency  ETV
vector 253  csma802154net.dataCentricNetworkMan  DiscoveryPacketFrequency  ETV
vector 254  csma802154net.dataCentricNetworkMan  RegisterPacketFrequency  ETV
vector 255  csma802154net.dataCentricNetworkMan  RReplyPacketFrequency  ETV
vector 256  csma802154net.dataCentricNetworkMan  AODVDataPacketFrequency  ETV
vector 263  csma802154net.dataCentricNetworkMan  pendingRegistrationVector  ETV
vector 262  csma802154net.dataCentricNetworkMan  pendingRREQVector  ETV
vector 260  csma802154net.dataCentricNetworkMan  PendingDataPacketsVector  ETV
vector 283  csma802154net.fixhost[19].udpApp  "End-to-end delay"  ETV
vector 248  csma802154net.dataCentricNetworkMan  dataPacketE2EDelay  ETV
vector 288  csma802154net.fixhost[24].udpApp  "End-to-end delay"  ETV
vector 289  csma802154net.fixhost[25].udpApp  "End-to-end delay"  ETV
vector 279  csma802154net.fixhost[15].udpApp  "End-to-end delay"  ETV
vector 280  csma802154net.fixhost[16].udpApp  "End-to-end delay"  ETV
vector 285  csma802154net.fixhost[21].udpApp  "End-to-end delay"  ETV
vector 269  csma802154net.fixhost[5].udpApp  "End-to-end delay"  ETV
vector 270  csma802154net.fixhost[6].udpApp  "End-to-end delay"  ETV
vector 274  csma802154net.fixhost[10].udpApp  "End-to-end delay"  ETV
vector 265  csma802154net.fixhost[1].udpApp  "End-to-end delay"  ETV
vector 266  csma802154net.fixhost[2].udpApp  "End-to-end delay"  ETV
248	2014 6419 360105 1401177 70.037676064328 7273.030844091991 143 0.010876033836 0.093620140743 5.025296138313 0.21574992831047
251	8433 30851 473 1401337 1.005 7273.04001 1116 0 80 1038 40978
252	39284 30819 473 1401337 1.005 7273.04001 1116 0 0 0 0
253	70103 30819 473 1401337 1.005 7273.04001 1116 0 0 0 0
254	100922 30819 473 1401337 1.005 7273.04001 1116 0 1 12 12
255	131741 30831 473 1401337 1.005 7273.04001 1116 0 66 1040 25114
256	162572 30836 473 1401337 1.005 7273.04001 1116 0 55 1042 19488
260	193408 11765 358574 1401177 70 7273.030844091991 390 0 3 455 871
262	205173 1192 16935 313247 43.50001 54.564768207831 43 0 1 16 16
263	206365 552 16930 304483 43.5 54.5 23 0 1 12 12
265	206917 587 370475 1400575 73.026436083967 7273.024516083967 13 0.023236083967 0.031836108731 0.34578916586 0.0092633854757611
266	207504 579 371400 1401177 73.053244091991 7273.030844091991 13 0.02860409199 0.058892123625 0.564229290778 0.026156894909712
269	208083 587 366336 1396232 72.035076078178 7272.025796078176 13 0.023556078177 0.072300078176 0.469029016307 0.019362232390862
270	208670 587 367285 1397219 72.063620103958 7272.054484103957 13 0.030556103958 0.063620103958 0.586261351445 0.028131034868054
274	209257 587 368278 1398513 72.076660140743 7272.070012140741 13 0.040004140742 0.093620140743 0.831541803436 0.056097330504954
279	209844 587 362421 1393144 71.012156033836 7271.012476033836 13 0.010876033836 0.017276033836 0.169228439867 0.0022306702199865
280	210431 587 363027 1394045 71.021036061585 7271.023916061584 13 0.021036061585 0.027684061585 0.311756800601 0.0075269435668483
283	211018 571 360105 1390829 70.037676064328 7270.021676064329 13 0.02103606433 0.04834006433 0.375612836285 0.011605119766001
285	211589 583 363338 1393739 71.026084070721 7271.021036070721 13 0.019116070721 0.02736407072 0.291812919371 0.006633288202443
288	212172 579 360723 1391447 70.047164084277 7270.031804084278 13 0.027396084278 0.067180084281 0.508597095632 0.022226626480472
289	212751 585 361337 1392060 70.053844109132 7270.039124109132 13 0.030556109135 0.063124109133 0.571437418731 0.026516401925377
