file 239170 1353499049                                          
version 2
run AODVScenario_1f-51-20121121-11:56:55-1752
attr configname AODVScenario_1f
attr datetime 20121121-11:56:55
attr experiment AODVScenario_1f
attr inifile AODV.ini
attr iterationvars $numNodes=101
attr iterationvars2 "$numNodes=101, $repetition=0"
attr measurement $numNodes=101
attr network csma802154net
attr numNodes 101
attr processid 1752
attr repetition 0
attr replication #0
attr resultdir results
attr runnumber 51
attr seedset 51

vector 415  csma802154net.dataCentricNetworkMan  RREQPacketFrequency  ETV
vector 416  csma802154net.dataCentricNetworkMan  RERRPacketFrequency  ETV
vector 417  csma802154net.dataCentricNetworkMan  DiscoveryPacketFrequency  ETV
vector 418  csma802154net.dataCentricNetworkMan  RegisterPacketFrequency  ETV
vector 419  csma802154net.dataCentricNetworkMan  RReplyPacketFrequency  ETV
vector 420  csma802154net.dataCentricNetworkMan  AODVDataPacketFrequency  ETV
vector 427  csma802154net.dataCentricNetworkMan  pendingRegistrationVector  ETV
vector 426  csma802154net.dataCentricNetworkMan  pendingRREQVector  ETV
vector 421  csma802154net.dataCentricNetworkMan  AODVDataLineBreakVector  ETV
vector 424  csma802154net.dataCentricNetworkMan  PendingDataPacketsVector  ETV
vector 434  csma802154net.fixhost[6].udpApp  "End-to-end delay"  ETV
vector 412  csma802154net.dataCentricNetworkMan  dataPacketE2EDelay  ETV
vector 457  csma802154net.fixhost[29].udpApp  "End-to-end delay"  ETV
vector 443  csma802154net.fixhost[15].udpApp  "End-to-end delay"  ETV
vector 440  csma802154net.fixhost[12].udpApp  "End-to-end delay"  ETV
vector 435  csma802154net.fixhost[7].udpApp  "End-to-end delay"  ETV
vector 441  csma802154net.fixhost[13].udpApp  "End-to-end delay"  ETV
412	1744 3506 1059112 2735188 70.02907605313 7273.052924109146 78 0.015956053131 0.060492105403 2.328870625337 0.079184691979054
415	5250 36859 801 2735446 1.005 7273.062924109146 1294 0 113 2219 142275
416	42109 36818 801 2735446 1.005 7273.062924109146 1294 0 0 0 0
417	78927 36818 801 2735446 1.005 7273.062924109146 1294 0 0 0 0
418	115745 36818 801 2735446 1.005 7273.062924109146 1294 0 1 12 12
419	152563 36834 801 2735446 1.005 7273.062924109146 1294 0 110 1769 80525
420	189397 36836 801 2735446 1.005 7273.062924109146 1294 0 100 1367 58803
421	226233 30 941120 941120 53.855936887223 53.855936887223 1 1 1 1 1
424	226263 7792 1057233 2735188 70 7273.052924109146 260 0 2 182 234
426	234055 1203 39656 956491 43.50001 54.522838666527 43 0 1 16 16
427	235258 406 39651 980547 43.5 54.613618566203 18 1 7 81 413
434	235664 591 1059112 2721763 70.02907605313 7270.017876053132 13 0.015956053131 0.02907605313 0.241348690706 0.0046213730542318
435	236255 587 1071042 2734042 73.02707609036 7273.028036090361 13 0.024196090359 0.050612090361 0.391133174685 0.012765999981855
440	236842 587 1066762 2728491 72.030524079501 7272.029244079501 13 0.022916079501 0.035892079499 0.379821033505 0.011257182135736
441	237429 595 1071546 2735188 73.028996109148 7273.052924109146 13 0.023876109148 0.054204109148 0.494949418916 0.020467165020671
443	238024 595 1066244 2729653 72.027356105402 7272.060492105403 13 0.027356105402 0.060492105403 0.538549370227 0.023875406920174
457	238619 551 1061951 2724602 71.0216760721 7271.0207160721 13 0.0184760721 0.0242360721 0.283068937298 0.0061975648663865
