file 212559 1353324003                                          
version 2
run AODVScenario_1f-41-20121119-11:19:37-544
attr configname AODVScenario_1f
attr datetime 20121119-11:19:37
attr experiment AODVScenario_1f
attr inifile AODV.ini
attr iterationvars $numNodes=91
attr iterationvars2 "$numNodes=91, $repetition=0"
attr measurement $numNodes=91
attr network csma802154net
attr numNodes 91
attr processid 544
attr repetition 0
attr replication #0
attr resultdir results
attr runnumber 41
attr seedset 41

vector 375  csma802154net.dataCentricNetworkMan  RREQPacketFrequency  ETV
vector 376  csma802154net.dataCentricNetworkMan  RERRPacketFrequency  ETV
vector 377  csma802154net.dataCentricNetworkMan  DiscoveryPacketFrequency  ETV
vector 378  csma802154net.dataCentricNetworkMan  RegisterPacketFrequency  ETV
vector 379  csma802154net.dataCentricNetworkMan  RReplyPacketFrequency  ETV
vector 380  csma802154net.dataCentricNetworkMan  AODVDataPacketFrequency  ETV
vector 387  csma802154net.dataCentricNetworkMan  pendingRegistrationVector  ETV
vector 386  csma802154net.dataCentricNetworkMan  pendingRREQVector  ETV
vector 384  csma802154net.dataCentricNetworkMan  PendingDataPacketsVector  ETV
vector 400  csma802154net.fixhost[12].udpApp  "End-to-end delay"  ETV
vector 372  csma802154net.dataCentricNetworkMan  dataPacketE2EDelay  ETV
vector 407  csma802154net.fixhost[19].udpApp  "End-to-end delay"  ETV
vector 411  csma802154net.fixhost[23].udpApp  "End-to-end delay"  ETV
vector 415  csma802154net.fixhost[27].udpApp  "End-to-end delay"  ETV
vector 394  csma802154net.fixhost[6].udpApp  "End-to-end delay"  ETV
vector 401  csma802154net.fixhost[13].udpApp  "End-to-end delay"  ETV
vector 395  csma802154net.fixhost[7].udpApp  "End-to-end delay"  ETV
vector 391  csma802154net.fixhost[3].udpApp  "End-to-end delay"  ETV
vector 396  csma802154net.fixhost[8].udpApp  "End-to-end delay"  ETV
372	1870 5329 746022 2226143 70.051236028222 7273.049084104221 117 0.007396018579 0.082220101203 2.766731123865 0.090411016638023
375	7199 31384 827 2226371 1.005 7273.055844067124 1109 0 110 1938 126252
376	38583 31345 827 2226371 1.005 7273.055844067124 1109 0 0 0 0
377	69928 31345 827 2226371 1.005 7273.055844067124 1109 0 0 0 0
378	101273 31345 827 2226371 1.005 7273.055844067124 1109 0 1 12 12
379	132618 31358 827 2226371 1.005 7273.055844067124 1109 0 113 1417 56313
380	163976 31364 827 2226371 1.005 7273.055844067124 1109 0 81 1078 40790
384	195340 10283 745195 2226143 70 7273.049084104221 338 0 3 351 637
386	205623 1111 32564 707764 43.50001 54.591005040924 40 0 1 15 15
387	206734 496 32559 741833 43.5 54.854021920964 21 1 4 59 179
391	207230 592 755699 2224686 73.022356054759 7273.016596054757 13 0.014996054759 0.048452054758 0.303244711861 0.0081348492903923
394	207822 592 752145 2221424 72.008356018579 7272.011236018579 13 0.007396018579 0.011236018579 0.115348241524 0.0010371052940515
395	208414 592 755208 2225161 73.019156067126 7273.040844067124 13 0.015316067126 0.068220067126 0.310604872633 0.010081965491005
396	209006 593 756650 2226143 73.030204104224 7273.049084104221 13 0.025156104223 0.079660104223 0.436781354905 0.017425773557447
400	209599 592 746022 2216005 70.051236028222 7270.008676028221 13 0.007716028222 0.051236028222 0.157268366882 0.003571763324774
401	210191 592 753091 2222369 72.017236047657 7272.020436047657 13 0.015316047657 0.020436047657 0.226308619536 0.003968049298176
407	210783 592 748149 2218329 71.016596052406 7271.018836052406 13 0.016596052406 0.030780052406 0.280596681271 0.0064155814895562
411	211375 592 749110 2219295 71.026404073817 7271.047524073816 13 0.021036073815 0.047524073816 0.399108959609 0.013138724729312
415	211967 592 750984 2220262 71.082220101203 7271.055092101204 13 0.023556101204 0.082220101203 0.537469315644 0.026637204163308
