version 2
run AODVScenario_1f-29-20121116-00:01:12-2408
attr configname AODVScenario_1f
attr datetime 20121116-00:01:12
attr experiment AODVScenario_1f
attr inifile AODV.ini
attr iterationvars $numNodes=79
attr iterationvars2 "$numNodes=79, $repetition=0"
attr measurement $numNodes=79
attr network csma802154net
attr numNodes 79
attr processid 2408
attr repetition 0
attr replication #0
attr resultdir results
attr runnumber 29
attr seedset 29

vector 327  csma802154net.dataCentricNetworkMan  RREQPacketFrequency  ETV
vector 328  csma802154net.dataCentricNetworkMan  RERRPacketFrequency  ETV
vector 329  csma802154net.dataCentricNetworkMan  DiscoveryPacketFrequency  ETV
vector 330  csma802154net.dataCentricNetworkMan  RegisterPacketFrequency  ETV
vector 331  csma802154net.dataCentricNetworkMan  RReplyPacketFrequency  ETV
vector 332  csma802154net.dataCentricNetworkMan  AODVDataPacketFrequency  ETV
vector 339  csma802154net.dataCentricNetworkMan  pendingRegistrationVector  ETV
vector 338  csma802154net.dataCentricNetworkMan  pendingRREQVector  ETV
vector 336  csma802154net.dataCentricNetworkMan  PendingDataPacketsVector  ETV
vector 356  csma802154net.fixhost[16].udpApp  "End-to-end delay"  ETV
vector 324  csma802154net.dataCentricNetworkMan  dataPacketE2EDelay  ETV
vector 353  csma802154net.fixhost[13].udpApp  "End-to-end delay"  ETV
vector 358  csma802154net.fixhost[18].udpApp  "End-to-end delay"  ETV
vector 347  csma802154net.fixhost[7].udpApp  "End-to-end delay"  ETV
vector 346  csma802154net.fixhost[6].udpApp  "End-to-end delay"  ETV
vector 342  csma802154net.fixhost[2].udpApp  "End-to-end delay"  ETV
vector 344  csma802154net.fixhost[4].udpApp  "End-to-end delay"  ETV
vector 345  csma802154net.fixhost[5].udpApp  "End-to-end delay"  ETV
vector 361  csma802154net.fixhost[21].udpApp  "End-to-end delay"  ETV
vector 365  csma802154net.fixhost[25].udpApp  "End-to-end delay"  ETV
324	575427	70.017236067137	0.017236067137
324	575814	70.020476042908	0.020476042908
324	576221	70.024204070284	0.024204070284
324	578540	71.027436069264	0.027436069264
324	578966	71.084116046199	0.084116046199
324	579987	72.0077160247	0.0077160247
324	580394	72.011516050491	0.011516050491
324	580811	72.016596071018	0.016596071018
324	582277	73.012476034723	0.012476034723
324	583740	73.044044049268	0.044044049268
324	682133	670.013044042907	0.013044042907
324	682539	670.015636070286	0.015636070286
324	682959	670.018444067137	0.018444067137
324	685268	671.0226040462	0.0226040462
324	685690	671.026724069265	0.026724069265
324	686715	672.0089960247	0.0089960247
324	687122	672.014076050491	0.014076050491
324	687539	672.018836071018	0.018836071018
324	689791	673.062892034723	0.062892034723
324	690642	673.073020049268	0.073020049268
324	789028	1270.014396042908	0.014396042908
324	789643	1270.022924067137	0.022924067137
324	790433	1270.040844070285	0.040844070285
324	792755	1271.0200440462	0.0200440462
324	793176	1271.023596069265	0.023596069265
324	794201	1272.0099560247	0.0099560247
324	794608	1272.014396050491	0.014396050491
324	795025	1272.019156071017	0.019156071017
324	796492	1273.013756034723	0.013756034723
324	797343	1273.021964049269	0.021964049269
324	895383	1870.013436042907	0.013436042907
324	896225	1870.024524067136	0.024524067136
324	896626	1870.029252070285	0.029252070285
324	898515	1871.0149960462	0.0149960462
324	899369	1871.025124069263	0.025124069263
324	900395	1872.0109160247	0.0109160247
324	900801	1872.014716050491	0.014716050491
324	901218	1872.018836071018	0.018836071018
324	902685	1873.011196034721	0.011196034721
324	903536	1873.020044049266	0.020044049266
324	1001949	2470.018836067137	0.018836067137
324	1002350	2470.021644070286	0.021644070286
324	1002754	2470.028332042908	0.028332042908
324	1005070	2471.0206840462	0.0206840462
324	1005492	2471.027364069265	0.027364069265
324	1006517	2472.0073960247	0.0073960247
324	1006924	2472.012156050491	0.012156050491
324	1007341	2472.016916071018	0.016916071018
324	1008808	2473.013436034723	0.013436034723
324	1009659	2473.021004049268	0.021004049268
324	1107620	3070.012796042908	0.012796042908
324	1108459	3070.022924070286	0.022924070286
324	1108880	3070.026372067137	0.026372067137
324	1110936	3071.0156360462	0.0156360462
324	1111795	3071.044644069265	0.044644069265
324	1112820	3072.0083560247	0.0083560247
324	1113227	3072.011836050491	0.011836050491
324	1113644	3072.016916071018	0.016916071018
324	1115545	3073.019124034721	0.019124034721
324	1115966	3073.023884049269	0.023884049269
324	1214006	3670.010556042908	0.010556042908
324	1214841	3670.020044070286	0.020044070286
324	1215261	3670.024204067137	0.024204067137
324	1217573	3671.0222840462	0.0222840462
324	1217989	3671.024164069265	0.024164069265
324	1219014	3672.0067560247	0.0067560247
324	1219421	3672.012156050491	0.012156050491
324	1219838	3672.016916071018	0.016916071018
324	1221308	3673.013436034723	0.013436034723
324	1222156	3673.020044049267	0.020044049267
324	1320571	4270.014676067135	0.014676067135
324	1320973	4270.017164070284	0.017164070284
324	1321378	4270.025060042905	0.025060042905
324	1323258	4271.017236046199	0.017236046199
324	1324112	4271.028324069262	0.028324069262
324	1325138	4272.0105960247	0.0105960247
324	1325544	4272.014076050491	0.014076050491
324	1325961	4272.018516071018	0.018516071018
324	1327428	4273.012796034723	0.012796034723
324	1328278	4273.019404049266	0.019404049266
324	1426674	4870.019444042908	0.019444042908
324	1427086	4870.024844070286	0.024844070286
324	1427507	4870.029572067136	0.029572067136
324	1429816	4871.021996069265	0.021996069265
324	1430242	4871.0279720462	0.0279720462
324	1431263	4872.0083560247	0.0083560247
324	1431670	4872.013436050491	0.013436050491
324	1432087	4872.017556071018	0.017556071018
324	1433553	4873.011196034723	0.011196034723
324	1434398	4873.016596049269	0.016596049269
324	1532889	5470.015316067137	0.015316067137
324	1533276	5470.017524042908	0.017524042908
324	1533684	5470.022532070286	0.022532070286
324	1536003	5471.029996069265	0.029996069265
324	1536428	5471.0338760462	0.0338760462
324	1537449	5472.0073960247	0.0073960247
324	1537856	5472.010876050491	0.010876050491
324	1538272	5472.014676071018	0.014676071018
324	1540173	5473.015924034721	0.015924034721
324	1540594	5473.020044049267	0.020044049267
324	1638738	6070.013756042908	0.013756042908
324	1639584	6070.042764067136	0.042764067136
324	1639985	6070.047812070286	0.047812070286
324	1642310	6071.0238840462	0.0238840462
324	1642728	6071.026156069264	0.026156069264
324	1643753	6072.0073960247	0.0073960247
324	1644160	6072.012156050491	0.012156050491
324	1644577	6072.015636071018	0.015636071018
324	1646044	6073.012476034723	0.012476034723
324	1646895	6073.021644049268	0.021644049268
324	1745291	6670.015924042907	0.015924042907
324	1745703	6670.020684070285	0.020684070285
324	1746124	6670.026372067137	0.026372067137
324	1748429	6671.018476069264	0.018476069264
324	1748854	6671.021324046199	0.021324046199
324	1749875	6672.0070760247	0.0070760247
324	1750282	6672.012476050491	0.012476050491
324	1750699	6672.017236071017	0.017236071017
324	1752592	6673.015676034722	0.015676034722
324	1753012	6673.018516049268	0.018516049268
324	1851496	7270.014356070285	0.014356070285
324	1851904	7270.019124042908	0.019124042908
324	1852316	7270.030852067137	0.030852067137
324	1854625	7271.023916069265	0.023916069265
324	1855661	7271.050300046199	0.050300046199
324	1856682	7272.0077160247	0.0077160247
324	1857089	7272.01279605049	0.01279605049
324	1857506	7272.016596071017	0.016596071017
324	1859403	7273.015356034723	0.015356034723
324	1859823	7273.018764049269	0.018764049269
327	625	1.005	1
327	638	1.01	0
327	1516	1.016973882191	99
327	2720	1.021973882191	72
327	4534	1.026973882191	39
327	6203	1.031973882191	30
327	7979	1.036973882191	55
327	9471	1.041973882191	70
327	10552	1.046973882191	65
327	11620	1.051973882191	73
327	12794	1.056973882191	68
327	13792	1.061973882191	46
327	14257	1.066973882191	28
327	14755	1.071973882191	50
327	15439	1.076973882191	36
327	15820	1.081973882191	23
327	16216	1.086973882191	30
327	16569	1.091973882191	39
327	16576	1.096973882191	0
327	16996	1.11271718889	34
327	17240	1.11771718889	34
327	17241	1.12271718889	0
327	17540	1.137393911273	26
327	17844	1.142393911273	29
327	17845	1.147393911273	0
327	18353	1.15713651691	37
327	18354	1.16213651691	0
327	18646	1.170761911273	26
327	18647	1.175761911273	0
327	18979	1.185787095428	34
327	18980	1.190787095428	0
327	25942	43.505	1
327	26537	43.51	19
327	27792	43.515	0
327	28405	43.52	0
327	29341	43.525	0
327	30096	43.53	0
327	30951	43.535	0
327	31957	43.54	0
327	32798	43.545	0
327	33454	43.55	0
327	34207	43.555	0
327	34690	43.56	0
327	35355	43.565	0
327	36276	43.57	0
327	37300	43.577935023326	0
327	37683	43.582935023326	0
327	38363	43.587935023326	0
327	38940	43.592935023326	0
327	39772	43.59830580489	0
327	40138	43.60330580489	0
327	40142	43.60830580489	0
327	41445	43.620446747659	0
327	41916	43.625446747659	0
327	42468	43.641106322121	0
327	42938	43.646106322121	0
327	43775	43.654408037938	0
327	44065	43.659408037938	0
327	44461	43.664408037938	0
327	44928	43.669408037938	0
327	45956	43.680880989157	0
327	46048	43.685880989157	0
327	46734	43.692513018998	0
327	47196	43.697513018998	0
327	47583	43.702513018998	0
327	47867	43.707513018998	0
327	48259	43.712513018998	0
327	48633	43.717513018998	0
327	48722	43.722513018998	0
327	49398	43.781290193173	0
327	49399	43.786290193173	0
327	49786	43.844514217584	0
327	49787	43.849514217584	0
327	49953	44.505	1
327	49960	44.51	0
327	51119	44.51837966332	13
327	51819	44.52337966332	0
327	52590	44.52837966332	0
327	53252	44.53337966332	0
327	54117	44.53837966332	0
327	54880	44.54337966332	0
327	55648	44.54837966332	0
327	56009	44.55337966332	0
327	56495	44.55837966332	0
327	57065	44.56337966332	0
327	57533	44.56837966332	0
327	58362	44.574585676653	0
327	58910	44.579585676653	0
327	59305	44.584585676653	0
327	60124	44.595914573661	0
327	60615	44.600914573661	0
327	61175	44.605914573661	0
327	61433	44.610914573661	0
327	61711	44.615968391599	0
327	62077	44.620968391599	0
327	62079	44.625968391599	0
327	62812	44.639885027651	0
327	62813	44.644885027651	0
327	63173	44.659547452226	0
327	63174	44.664547452226	0
327	63560	44.678338592164	0
327	63561	44.683338592164	0
327	64005	44.704175414591	0
327	64294	44.709175414591	0
327	64295	44.714175414591	0
327	64470	45.505	1
327	64924	45.51	29
327	66290	45.515	0
327	67702	45.52	0
327	68930	45.526789966193	0
327	69590	45.531789966193	0
327	70163	45.537381123698	0
327	71136	45.542381123698	0
327	72137	45.547381123698	0
327	73006	45.552381123698	0
327	73685	45.557381123698	0
327	74557	45.562381123698	0
327	75303	45.567381123698	0
327	76576	45.577468322398	0
327	77425	45.582468322398	0
327	78367	45.587468322398	0
327	79132	45.593247054286	0
327	80100	45.598247054286	0
327	81024	45.603247054286	0
327	81772	45.608247054286	0
327	83272	45.617695081275	0
327	84216	45.622695081275	0
327	84502	45.627695081275	0
327	85207	45.634070707905	0
327	85859	45.639070707905	0
327	86638	45.644070707905	0
327	87703	45.649070707905	0
327	88267	45.654070707905	0
327	90840	45.675061910673	0
327	91621	45.680061910673	0
327	92462	45.685061910673	0
327	92920	45.690061910673	0
327	93802	45.696221645041	0
327	94485	45.701221645041	0
327	95174	45.706221645041	0
327	95921	45.711221645041	0
327	96569	45.716221645041	0
327	97359	45.721221645041	0
327	98333	45.728151100545	0
327	99188	45.733151100545	0
327	100313	45.738151100545	0
327	100911	45.743151100545	0
327	101395	45.748151100545	0
327	101977	45.753151100545	0
327	102678	45.758151100545	0
327	103466	45.763151100545	0
327	104318	45.768151100545	0
327	104801	45.773151100545	0
327	105489	45.779021064289	0
327	105773	45.784021064289	0
327	106550	45.78982880056	0
327	106834	45.79482880056	0
327	108802	45.821537559327	0
327	109277	45.826537559327	0
327	109675	45.831537559327	0
327	110472	45.839870201382	0
327	110873	45.844870201382	0
327	111276	45.849870201382	0
327	111671	45.85796494947	0
327	111672	45.86296494947	0
327	111838	46.505	1
327	111933	46.51	0
327	113771	46.516002169359	42
327	114982	46.521002169359	0
327	117455	46.533600882251	0
327	118304	46.538600882251	0
327	119650	46.543600882251	0
327	120797	46.548600882251	0
327	121815	46.553600882251	0
327	124265	46.565961669162	0
327	124961	46.570961669162	0
327	126024	46.575961669162	0
327	126984	46.580961669162	0
327	127777	46.585961669162	0
327	128888	46.59253688137	0
327	129736	46.59753688137	0
327	133302	46.616913339764	0
327	134094	46.621913339764	0
327	135284	46.626913339764	0
327	136263	46.631913339764	0
327	138234	46.64187067793	0
327	138995	46.64687067793	0
327	139754	46.65187067793	0
327	140937	46.657294520139	0
327	142037	46.662294520139	0
327	143331	46.667294520139	0
327	146795	46.684123580323	0
327	147499	46.689123580323	0
327	150304	46.703506451055	0
327	150865	46.708506451055	0
327	151788	46.713506451055	0
327	152898	46.718506451055	0
327	153925	46.723506451055	0
327	154734	46.728506451055	0
327	155226	46.733506451055	0
327	156305	46.740967086403	0
327	157373	46.745967086403	0
327	158292	46.750967086403	0
327	160199	46.761325001367	0
327	160909	46.766325001367	0
327	161683	46.771325001367	0
327	162836	46.776325001367	0
327	164014	46.781325001367	0
327	165153	46.787446347994	0
327	165970	46.792446347994	0
327	166544	46.797446347994	0
327	167605	46.804294926336	0
327	168618	46.809294926336	0
327	169598	46.814294926336	0
327	170370	46.819294926336	0
327	171132	46.824294926336	0
327	172212	46.833030121139	0
327	173051	46.838030121139	0
327	173925	46.843030121139	0
327	174395	46.848030121139	0
327	175470	46.85682241665	0
327	176227	46.86182241665	0
327	176882	46.86682241665	0
327	177748	46.87182241665	0
327	178210	46.87682241665	0
327	178821	46.88182241665	0
327	179639	46.88682241665	0
327	180574	46.89182241665	0
327	180862	46.89682241665	0
327	181456	46.90182241665	0
327	182274	46.90682241665	0
327	182681	46.91182241665	0
327	183457	46.91682241665	0
327	184230	46.92182241665	0
327	185306	46.92941670975	0
327	185790	46.93441670975	0
327	186099	46.93941670975	0
327	186100	46.94441670975	0
327	187449	46.972893918068	0
327	187627	46.977893918068	0
327	188305	46.999336222254	0
327	188978	47.004336222254	0
327	188979	47.009336222254	0
327	189381	47.032410453073	0
327	189382	47.037410453073	0
327	189395	47.505	1
327	189795	47.51	25
327	191118	47.515	0
327	192295	47.52	0
327	192793	47.525	0
327	193546	47.530023790282	0
327	194124	47.535023790282	0
327	195215	47.540023790282	0
327	195957	47.545023790282	0
327	196950	47.550361535146	0
327	198002	47.555361535146	0
327	198646	47.560361535146	0
327	199807	47.565717911649	0
327	200820	47.570717911649	0
327	201469	47.575717911649	0
327	201874	47.580717911649	0
327	202923	47.588658250143	0
327	204038	47.593658250143	0
327	205344	47.602596230922	0
327	206119	47.607596230922	0
327	206411	47.612596230922	0
327	207420	47.621357514843	0
327	208384	47.626357514843	0
327	208882	47.631357514843	0
327	209728	47.636357514843	0
327	210235	47.641357514843	0
327	211470	47.646357514843	0
327	212646	47.651357514843	0
327	213684	47.656357514843	0
327	214547	47.661357514843	0
327	215232	47.666357514843	0
327	215838	47.671357514843	0
327	216300	47.676357514843	0
327	218248	47.69053204528	0
327	218836	47.69553204528	0
327	219532	47.70053204528	0
327	220897	47.70888220653	0
327	221087	47.71388220653	0
327	221578	47.71888220653	0
327	222189	47.72388220653	0
327	222972	47.72888220653	0
327	224044	47.742282128664	0
327	224046	47.747282128664	0
327	225199	47.761956221648	0
327	225598	47.766956221648	0
327	225992	47.771956221648	0
327	226286	47.776956221648	0
327	226482	47.781956221648	0
327	226869	47.787535620914	0
327	227170	47.792535620914	0
327	227259	47.797535620914	0
327	227571	47.804165108297	0
327	227572	47.809165108297	0
327	227978	47.823718140959	0
327	227979	47.828718140959	0
327	228475	47.840519642117	0
327	228794	47.845519642117	0
327	228795	47.850519642117	0
327	228961	48.505	1
327	228971	48.51	0
327	230467	48.517146239774	29
327	231821	48.522146239774	0
327	233272	48.528548432279	0
327	234210	48.533548432279	0
327	235321	48.540252454312	0
327	236116	48.545252454312	0
327	237291	48.550252454312	0
327	238267	48.555252454312	0
327	238863	48.560252454312	0
327	239772	48.565252454312	0
327	240839	48.570252454312	0
327	241276	48.575252454312	0
327	243332	48.585926291813	0
327	244137	48.590926291813	0
327	245356	48.595926291813	0
327	246045	48.600926291813	0
327	246858	48.606991409275	0
327	247636	48.611991409275	0
327	248601	48.616991409275	0
327	249985	48.62518408749	0
327	250688	48.63018408749	0
327	251388	48.63518408749	0
327	253511	48.645006464553	0
327	254100	48.650006464553	0
327	254775	48.655006464553	0
327	255372	48.660006464553	0
327	256283	48.665006464553	0
327	256769	48.670006464553	0
327	257522	48.675006464553	0
327	258325	48.680006464553	0
327	258872	48.685006464553	0
327	259952	48.690854383906	0
327	260324	48.695854383906	0
327	261488	48.707197624221	0
327	262148	48.712197624221	0
327	262440	48.717197624221	0
327	263681	48.724838425266	0
327	264085	48.729838425266	0
327	264695	48.734838425266	0
327	265584	48.739838425266	0
327	266509	48.744838425266	0
327	267333	48.749838425266	0
327	268226	48.754838425266	0
327	268866	48.759838425266	0
327	270646	48.774414399951	0
327	271034	48.779414399951	0
327	272129	48.786758414959	0
327	272616	48.791758414959	0
327	273011	48.796758414959	0
327	273781	48.801758414959	0
327	274295	48.808952312972	0
327	274784	48.813952312972	0
327	275102	48.818952312972	0
327	275593	48.829078497988	0
327	275915	48.834078497988	0
327	276511	48.839078497988	0
327	276713	48.844078497988	0
327	277101	48.857807430653	0
327	277102	48.862807430653	0
327	277496	48.911182520256	0
327	277497	48.916182520256	0
327	277948	49.505	20
327	278959	49.51	0
327	280149	49.515	0
327	281057	49.52	0
327	281479	49.525	0
327	282229	49.53	0
327	282983	49.535	0
327	284026	49.544173665979	0
327	284889	49.549173665979	0
327	285095	49.554173665979	0
327	285819	49.559173665979	0
327	286512	49.564173665979	0
327	287112	49.569173665979	0
327	287767	49.574173665979	0
327	288371	49.579173665979	0
327	288989	49.584173665979	0
327	289584	49.589173665979	0
327	290401	49.595832011687	0
327	291213	49.600832011687	0
327	291976	49.605832011687	0
327	292582	49.610832011687	0
327	292774	49.615832011687	0
327	293174	49.621054415951	0
327	293564	49.626054415951	0
327	294266	49.631054415951	0
327	294752	49.636054415951	0
327	295064	49.641054415951	0
327	295458	49.646054415951	0
327	295462	49.651054415951	0
327	296261	49.6582260566	0
327	296262	49.6632260566	0
327	296852	49.697923757519	0
327	297142	49.702923757519	0
327	297440	49.709017442961	0
327	297441	49.714017442961	0
327	297935	49.728074512681	0
327	298653	49.733074512681	0
327	298945	49.738074512681	0
327	299045	49.743074512681	0
327	299233	50.505	1
327	299814	50.51	29
327	301089	50.515	0
327	301989	50.52	0
327	303223	50.528828458788	0
327	303867	50.533828458788	0
327	304612	50.538828458788	0
327	305239	50.543828458788	0
327	306646	50.551253199938	0
327	306947	50.556253199938	0
327	307593	50.561253199938	0
327	308195	50.566253199938	0
327	308887	50.571253199938	0
327	309582	50.576253199938	0
327	310373	50.582026101299	0
327	310871	50.587026101299	0
327	311577	50.592026101299	0
327	312184	50.597026101299	0
327	313036	50.602026101299	0
327	314036	50.607026101299	0
327	314848	50.612026101299	0
327	315546	50.618126672259	0
327	316052	50.623126672259	0
327	316879	50.628126672259	0
327	317359	50.633126672259	0
327	319198	50.648870114128	0
327	319775	50.653870114128	0
327	320281	50.658870114128	0
327	321170	50.663890110716	0
327	321762	50.668890110716	0
327	323833	50.690228667949	0
327	324453	50.695228667949	0
327	325035	50.700228667949	0
327	325864	50.705228667949	0
327	326337	50.710228667949	0
327	327162	50.717064306	0
327	327759	50.722064306	0
327	328468	50.727064306	0
327	329174	50.732064306	0
327	329770	50.737064306	0
327	329981	50.742064306	0
327	330850	50.748909493327	0
327	331257	50.753909493327	0
327	331859	50.758909493327	0
327	332461	50.765319318216	0
327	333004	50.770319318216	0
327	333417	50.775319318216	0
327	333879	50.780319318216	0
327	334288	50.786832570557	0
327	334608	50.791832570557	0
327	334618	50.796832570557	0
327	335325	50.803691547211	0
327	335617	50.808691547211	0
327	336020	50.815976319738	0
327	336021	50.820976319738	0
327	336430	50.834277517458	0
327	336431	50.839277517458	0
327	336840	50.851776329737	0
327	336841	50.856776329737	0
327	337669	50.866007605318	0
327	337670	50.871007605318	0
327	337865	51.505	1
327	337875	51.51	0
327	339370	51.518214033871	33
327	341001	51.523214033871	0
327	341803	51.528214033871	0
327	342631	51.533240672103	0
327	343271	51.538240672103	0
327	344262	51.543240672103	0
327	345117	51.548240672103	0
327	345941	51.553240672103	0
327	346644	51.558240672103	0
327	349029	51.57154253	0
327	349788	51.57654253	0
327	350600	51.58154253	0
327	351583	51.58654253	0
327	352923	51.596180276785	0
327	353682	51.601180276785	0
327	354531	51.606180276785	0
327	357475	51.626132033188	0
327	358241	51.631132033188	0
327	359095	51.637437168191	0
327	360149	51.642437168191	0
327	360931	51.647437168191	0
327	361549	51.652437168191	0
327	362118	51.657437168191	0
327	363126	51.662751056025	0
327	363745	51.667751056025	0
327	364986	51.676654796412	0
327	365587	51.681654796412	0
327	366767	51.686654796412	0
327	367547	51.691654796412	0
327	368123	51.696654796412	0
327	368875	51.702848060032	0
327	369533	51.707848060032	0
327	370898	51.718126814763	0
327	371380	51.723126814763	0
327	372179	51.729493181195	0
327	373081	51.734493181195	0
327	373977	51.739493181195	0
327	374562	51.744493181195	0
327	375596	51.752960242975	0
327	376101	51.757960242975	0
327	376706	51.762960242975	0
327	377284	51.767960242975	0
327	378429	51.777625426025	0
327	379156	51.782625426025	0
327	379929	51.787625426025	0
327	380577	51.792625426025	0
327	381177	51.812766246968	0
327	381765	51.817766246968	0
327	382460	51.822766246968	0
327	383065	51.827766246968	0
327	383067	51.832766246968	0
327	384884	51.852745420728	0
327	385465	51.857745420728	0
327	386482	51.862745420728	0
327	386689	51.867745420728	0
327	387478	51.896116051903	0
327	387567	51.901116051903	0
327	387891	51.906847028777	0
327	387985	51.911847028777	0
327	389080	51.919575934846	0
327	389081	51.924575934846	0
327	389486	51.938744025089	0
327	389487	51.943744025089	0
327	389695	52.505	1
327	389790	52.51	0
327	391216	52.516739003144	27
327	392289	52.521739003144	0
327	393306	52.526739003144	0
327	394501	52.531739003144	0
327	395293	52.536739003144	0
327	396586	52.544003066636	0
327	397478	52.549003066636	0
327	398785	52.555862625183	0
327	399371	52.560862625183	0
327	400150	52.566008643534	0
327	400773	52.571008643534	0
327	401696	52.576008643534	0
327	403003	52.581008643534	0
327	404018	52.586008643534	0
327	404961	52.591008643534	0
327	405985	52.596008643534	0
327	406969	52.601008643534	0
327	407917	52.606008643534	0
327	408913	52.611008643534	0
327	409887	52.619819507943	0
327	410387	52.624819507943	0
327	411605	52.632686640311	0
327	412316	52.637686640311	0
327	413456	52.643818312901	0
327	414153	52.648818312901	0
327	415692	52.65720352426	0
327	416100	52.66220352426	0
327	417372	52.674275502574	0
327	417959	52.679275502574	0
327	418667	52.684275502574	0
327	419373	52.689275502574	0
327	420196	52.694275502574	0
327	420918	52.699275502574	0
327	421609	52.706662061602	0
327	422392	52.711662061602	0
327	423011	52.716662061602	0
327	423404	52.721662061602	0
327	424331	52.726793393504	0
327	424428	52.731793393504	0
327	425134	52.737809288076	0
327	425834	52.742809288076	0
327	426210	52.747809288076	0
327	426524	52.752809288076	0
327	427202	52.757809288076	0
327	428415	52.765323515066	0
327	429185	52.770323515066	0
327	429804	52.775747512577	0
327	430504	52.780747512577	0
327	430598	52.785747512577	0
327	431528	52.791447460821	0
327	432014	52.796447460821	0
327	432127	52.801447460821	0
327	433425	52.81612038961	0
327	433552	52.82112038961	0
327	434561	52.833682561883	0
327	434562	52.838682561883	0
327	435470	52.854440026957	0
327	435874	52.859440026957	0
327	436199	52.864440026957	0
327	436200	52.869440026957	0
327	436397	53.505	1
327	436913	53.51	44
327	439258	53.515	0
327	440514	53.52	0
327	441575	53.525	0
327	442371	53.53	0
327	443345	53.53690525627	0
327	444658	53.54190525627	0
327	445947	53.546928557802	0
327	446893	53.551928557802	0
327	447711	53.556928557802	0
327	449568	53.569090058138	0
327	450383	53.574090058138	0
327	451577	53.579311151479	0
327	452673	53.584311151479	0
327	454218	53.591268776634	0
327	455214	53.596268776634	0
327	460030	53.621180736995	0
327	461070	53.626180736995	0
327	465257	53.646695116095	0
327	466071	53.651695116095	0
327	466998	53.656695116095	0
327	468110	53.661847130354	0
327	469650	53.666847130354	0
327	470817	53.671847130354	0
327	473374	53.684942239852	0
327	474554	53.689942239852	0
327	475501	53.694942239852	0
327	476370	53.699942239852	0
327	477410	53.704942239852	0
327	478518	53.709942239852	0
327	479737	53.715578739291	0
327	481046	53.720578739291	0
327	481850	53.725578739291	0
327	483498	53.733556770396	0
327	484413	53.738556770396	0
327	485108	53.743556770396	0
327	485960	53.748556770396	0
327	486956	53.753556770396	0
327	488073	53.761247769927	0
327	489019	53.766247769927	0
327	489709	53.771247769927	0
327	491747	53.779004771803	0
327	492505	53.784004771803	0
327	494974	53.797965839425	0
327	496251	53.802965839425	0
327	497086	53.807965839425	0
327	497839	53.812965839425	0
327	498651	53.817965839425	0
327	499869	53.825988578533	0
327	500757	53.830988578533	0
327	502220	53.839162255426	0
327	503022	53.844162255426	0
327	503977	53.849162255426	0
327	505147	53.854162255426	0
327	506950	53.870212618618	0
327	507567	53.875212618618	0
327	508416	53.880649809704	0
327	508952	53.885649809704	0
327	509743	53.890649809704	0
327	510518	53.895649809704	0
327	511043	53.900649809704	0
327	511982	53.908727282782	0
327	512499	53.913727282782	0
327	513279	53.918727282782	0
327	514258	53.923727282782	0
327	514685	53.930037490157	0
327	515541	53.935037490157	0
327	515980	53.940037490157	0
327	516925	53.945037490157	0
327	517810	53.950037490157	0
327	518239	53.956513049972	0
327	518877	53.961513049972	0
327	518983	53.966513049972	0
327	520007	53.974906376206	0
327	520422	53.979906376206	0
327	520601	53.984906376206	0
327	521843	53.999641781199	0
327	522012	54.004641781199	0
327	522652	54.011122582344	0
327	522870	54.016122582344	0
327	524076	54.024357382175	0
327	524077	54.029357382175	0
327	524985	54.073734185622	0
327	525330	54.078734185622	0
327	525331	54.083734185622	0
327	525461	54.505	1
327	526206	54.51	26
327	527651	54.515	0
327	528671	54.52	0
327	530026	54.52686020817	0
327	530552	54.53186020817	0
327	531464	54.53686020817	0
327	532083	54.54186020817	0
327	533359	54.548143038669	0
327	533950	54.553143038669	0
327	534661	54.558143038669	0
327	536313	54.57184636064	0
327	537115	54.57684636064	0
327	537644	54.58184636064	0
327	538281	54.58684636064	0
327	538795	54.59184636064	0
327	539925	54.598150689762	0
327	540591	54.603150689762	0
327	541707	54.609952628845	0
327	542425	54.614952628845	0
327	543739	54.624262136491	0
327	544249	54.629262136491	0
327	545283	54.636606158398	0
327	546219	54.641606158398	0
327	547133	54.646606158398	0
327	548556	54.651606158398	0
327	549455	54.656606158398	0
327	550386	54.665954678874	0
327	551290	54.670954678874	0
327	552228	54.675954678874	0
327	552912	54.680954678874	0
327	554193	54.690244230063	0
327	554901	54.695244230063	0
327	555901	54.700244230063	0
327	556514	54.705244230063	0
327	557133	54.710244230063	0
327	557983	54.715244230063	0
327	558921	54.720244230063	0
327	559934	54.725244230063	0
327	560856	54.730244230063	0
327	561378	54.735244230063	0
327	562281	54.740244230063	0
327	562805	54.745244230063	0
327	563633	54.750244230063	0
327	563921	54.755244230063	0
327	564932	54.765790388434	0
327	565736	54.770790388434	0
327	566073	54.775790388434	0
327	566866	54.78460955931	0
327	566955	54.78960955931	0
327	567365	54.795937981633	0
327	567671	54.800937981633	0
327	568154	54.805937981633	0
327	568652	54.820924906909	0
327	568742	54.825924906909	0
327	569467	54.831348926004	0
327	569646	54.836348926004	0
327	570694	54.866748606601	0
327	571128	54.871748606601	0
327	571132	54.876748606601	0
327	574369	70.00501	0
327	574776	70.01001	0
327	575209	70.01501	0
327	575702	70.02001	0
327	576425	70.02501	0
327	576426	70.03001	0
327	576884	71.00501	0
327	577333	71.01001	0
327	577459	71.01501	0
327	578188	71.022596034148	0
327	578541	71.027596034148	0
327	578745	71.032596034148	0
327	579166	71.089116046199	0
327	579167	71.094116046199	0
327	579773	72.00501	0
327	580183	72.01001	0
327	580600	72.01501	0
327	581017	72.02001	0
327	581018	72.02501	0
327	581630	73.00501	0
327	582060	73.01001	0
327	582676	73.01501	0
327	582677	73.02001	0
327	583827	73.044284034577	0
327	583939	73.049284034577	0
327	681090	670.00501	0
327	681589	670.01001	0
327	682413	670.01501	0
327	683146	670.02001	0
327	683147	670.02501	0
327	683605	671.00501	0
327	684176	671.01001	0
327	684604	671.01501	0
327	685046	671.02001	0
327	685471	671.02501	0
327	685894	671.03001	0
327	685895	671.03501	0
327	686293	672.00501	0
327	686908	672.01001	0
327	687325	672.01501	0
327	687745	672.02001	0
327	687746	672.02501	0
327	688150	673.00501	0
327	688660	673.01001	0
327	689176	673.01501	0
327	690080	673.067892034723	0
327	690510	673.072892034723	0
327	690840	673.077892034723	0
327	690841	673.082892034723	0
327	787989	1270.00501	0
327	788402	1270.01001	0
327	789306	1270.01501	0
327	789426	1270.02001	0
327	789830	1270.027924067137	0
327	789831	1270.032924067137	0
327	790637	1270.045844070285	0
327	790638	1270.050844070285	0
327	791224	1271.00501	0
327	791667	1271.01001	0
327	792104	1271.01501	0
327	792622	1271.02001	0
327	793380	1271.02501	0
327	793381	1271.03001	0
327	793779	1272.00501	0
327	794202	1272.01001	0
327	794808	1272.01501	0
327	795231	1272.02001	0
327	795232	1272.02501	0
327	795844	1273.00501	0
327	796271	1273.01001	0
327	796693	1273.01501	0
327	797126	1273.02001	0