version 2
run AODVScenario_1f-66-20121116-00:22:41-3244
attr configname AODVScenario_1f
attr datetime 20121116-00:22:41
attr experiment AODVScenario_1f
attr inifile AODV.ini
attr iterationvars $numNodes=116
attr iterationvars2 "$numNodes=116, $repetition=0"
attr measurement $numNodes=116
attr network csma802154net
attr numNodes 116
attr processid 3244
attr repetition 0
attr replication #0
attr resultdir results
attr runnumber 66
attr seedset 66

vector 475  csma802154net.dataCentricNetworkMan  RREQPacketFrequency  ETV
vector 476  csma802154net.dataCentricNetworkMan  RERRPacketFrequency  ETV
vector 477  csma802154net.dataCentricNetworkMan  DiscoveryPacketFrequency  ETV
vector 478  csma802154net.dataCentricNetworkMan  RegisterPacketFrequency  ETV
vector 479  csma802154net.dataCentricNetworkMan  RReplyPacketFrequency  ETV
vector 480  csma802154net.dataCentricNetworkMan  AODVDataPacketFrequency  ETV
vector 487  csma802154net.dataCentricNetworkMan  pendingRegistrationVector  ETV
vector 486  csma802154net.dataCentricNetworkMan  pendingRREQVector  ETV
vector 481  csma802154net.dataCentricNetworkMan  AODVDataLineBreakVector  ETV
vector 484  csma802154net.dataCentricNetworkMan  PendingDataPacketsVector  ETV
vector 498  csma802154net.fixhost[10].udpApp  "End-to-end delay"  ETV
vector 472  csma802154net.dataCentricNetworkMan  dataPacketE2EDelay  ETV
vector 501  csma802154net.fixhost[13].udpApp  "End-to-end delay"  ETV
vector 499  csma802154net.fixhost[11].udpApp  "End-to-end delay"  ETV
vector 490  csma802154net.fixhost[2].udpApp  "End-to-end delay"  ETV
vector 491  csma802154net.fixhost[3].udpApp  "End-to-end delay"  ETV
vector 492  csma802154net.fixhost[4].udpApp  "End-to-end delay"  ETV
vector 502  csma802154net.fixhost[14].udpApp  "End-to-end delay"  ETV
vector 506  csma802154net.fixhost[18].udpApp  "End-to-end delay"  ETV
vector 505  csma802154net.fixhost[17].udpApp  "End-to-end delay"  ETV
vector 497  csma802154net.fixhost[9].udpApp  "End-to-end delay"  ETV
vector 500  csma802154net.fixhost[12].udpApp  "End-to-end delay"  ETV
vector 507  csma802154net.fixhost[19].udpApp  "End-to-end delay"  ETV
472	1197162	70.014076041507	0.014076041507
472	1198923	70.029636104025	0.029636104025
472	1199503	70.061036080338	0.061036080338
472	1200997	71.009956012	0.009956012
472	1201589	71.014396024515	0.014396024515
472	1202173	71.019156049352	0.019156049352
472	1205742	72.023276066046	0.023276066046
472	1207831	72.051284102969	0.051284102969
472	1208434	72.062916079981	0.062916079981
472	1211057	73.015956052834	0.015956052834
472	1212260	73.023524073571	0.023524073571
472	1214018	73.06828408872	0.06828408872
472	1357742	670.012796041508	0.012796041508
472	1358955	670.023276080339	0.023276080339
472	1360101	670.032764104026	0.032764104026
472	1361517	671.012516012	0.012516012
472	1362108	671.017276024515	0.017276024515
472	1362692	671.022356049352	0.022356049352
472	1366004	672.020076076169	0.020076076169
472	1368089	672.032372099158	0.032372099158
472	1368671	672.054420066046	0.054420066046
472	1371280	673.019476052834	0.019476052834
472	1372488	673.03056407357	0.03056407357
472	1373661	673.036604088719	0.036604088719
472	1517386	1270.015036041507	0.015036041507
472	1519154	1270.027396104026	0.027396104026
472	1519733	1270.030492080338	0.030492080338
472	1521163	1271.008356012	0.008356012
472	1521755	1271.012796024515	0.012796024515
472	1522339	1271.016596049352	0.016596049352
472	1525646	1272.022636076169	0.022636076169
472	1526961	1272.029356066046	0.029356066046
472	1528335	1272.058932099158	0.058932099158
472	1530950	1273.018196052834	0.018196052834
472	1532397	1273.024804073571	0.024804073571
472	1533579	1273.05317208872	0.05317208872
472	1677419	1870.013756041507	0.013756041507
472	1679205	1870.025196080338	0.025196080338
472	1679777	1870.028604104026	0.028604104026
472	1681192	1871.009316012	0.009316012
472	1681784	1871.014076024515	0.014076024515
472	1682368	1871.018516049352	0.018516049352
472	1686255	1872.021356066046	0.021356066046
472	1686852	1872.023276076169	0.023276076169
472	1688074	1872.028924099157	0.028924099157
472	1690943	1873.020436052834	0.020436052834
472	1692396	1873.049764073571	0.049764073571
472	1693577	1873.077812088719	0.077812088719
472	1837301	2470.013116041508	0.013116041508
472	1838514	2470.021996080339	0.021996080339
472	1839660	2470.034044104027	0.034044104027
472	1841076	2471.012196012	0.012196012
472	1841667	2471.015676024515	0.015676024515
472	1842251	2471.019156049352	0.019156049352
472	1845806	2472.021356066046	0.021356066046
472	1847622	2472.047772076169	0.047772076169
472	1848848	2472.055412099158	0.055412099158
472	1851460	2473.017876052834	0.017876052834
472	1852664	2473.025764073571	0.025764073571
472	1853840	2473.03308408872	0.03308408872
472	1997564	3070.011196041508	0.011196041508
472	1999352	3070.021924080339	0.021924080339
472	1999921	3070.024516104027	0.024516104027
472	2001336	3071.008036012	0.008036012
472	2001928	3071.012156024515	0.012156024515
472	2002512	3071.017236049352	0.017236049352
472	2005791	3072.020716066045	0.020716066045
472	2007001	3072.027044076169	0.027044076169
472	2008226	3072.033652099157	0.033652099157
472	2010838	3073.018196052834	0.018196052834
472	2012046	3073.025764073571	0.025764073571
472	2013222	3073.03397208872	0.03397208872
472	2157062	3670.011196041508	0.011196041508
472	2158830	3670.026116104027	0.026116104027
472	2160229	3670.053532080338	0.053532080338
472	2161659	3671.008036012	0.008036012
472	2162251	3671.012796024514	0.012796024514
472	2162835	3671.018196049351	0.018196049351
472	2166364	3672.022316066046	0.022316066046
472	2168201	3672.050012076168	0.050012076168
472	2168810	3672.052532099158	0.052532099158
472	2172311	3673.021676073571	0.021676073571
472	2172893	3673.029892052834	0.029892052834
472	2174058	3673.05100408872	0.05100408872
472	2317782	4270.010876041507	0.010876041507
472	2319550	4270.023556104024	0.023556104024
472	2320129	4270.027612080336	0.027612080336
472	2321559	4271.007396011999	0.007396011999
472	2322151	4271.011516024514	0.011516024514
472	2322734	4271.014996049351	0.014996049351
472	2326288	4272.021676076168	0.021676076168
472	2327485	4272.033052066044	0.033052066044
472	2328702	4272.053564099156	0.053564099156
472	2332534	4273.024772052833	0.024772052833
472	2333122	4273.02704407357	0.02704407357
472	2333706	4273.030524088719	0.030524088719
472	2477430	4870.011836041508	0.011836041508
472	2479214	4870.022636080339	0.022636080339
472	2479784	4870.025156104027	0.025156104027
472	2481200	4871.010276012	0.010276012
472	2481791	4871.015036024515	0.015036024515
472	2482375	4871.018836049352	0.018836049352
472	2486907	4872.026116099158	0.026116099158
472	2487487	4872.028396066046	0.028396066046
472	2488086	4872.032020076169	0.032020076169
472	2491944	4873.023844073571	0.023844073571
472	2492527	4873.027652052834	0.027652052834
472	2493098	4873.03340408872	0.03340408872
472	2636938	5470.012156041508	0.012156041508
472	2638150	5470.019756080339	0.019756080339
472	2639296	5470.029564104027	0.029564104027
472	2640711	5471.007716012	0.007716012
472	2641303	5471.012156024515	0.012156024515
472	2641887	5471.015636049352	0.015636049352
472	2645414	5472.023276066045	0.023276066045
472	2647243	5472.051044076169	0.051044076169
472	2648734	5472.077812099157	0.077812099157
472	2652573	5473.02835608872	0.02835608872
472	2653161	5473.031172052834	0.031172052834
472	2653753	5473.045140073571	0.045140073571
472	2797468	6070.011836041508	0.011836041508
472	2798933	6070.021356080339	0.021356080339
472	2800084	6070.051644104027	0.051644104027
472	2801499	6071.008676012	0.008676012
472	2802091	6071.013116024515	0.013116024515
472	2802675	6071.017556049352	0.017556049352
472	2806076	6072.021356066046	0.021356066046
472	2808070	6072.056052099157	0.056052099157
472	2808672	6072.059468076167	0.059468076167
472	2811903	6073.019156052834	0.019156052834
472	2813061	6073.02515608872	0.02515608872
472	2813674	6073.031276073571	0.031276073571
472	2957950	6670.012796041507	0.012796041507
472	2959163	6670.022316080338	0.022316080338
472	2960309	6670.031804104026	0.031804104026
472	2961724	6671.009316012	0.009316012
472	2962316	6671.014716024515	0.014716024515
472	2962900	6671.018836049352	0.018836049352
472	2967437	6672.024484076166	0.024484076166
472	2968050	6672.026684099156	0.026684099156
472	2968631	6672.038740066044	0.038740066044
472	2971497	6673.016916052834	0.016916052834
472	2972712	6673.044964073571	0.044964073571
472	2973886	6673.05157208872	0.05157208872
472	3117727	7270.016636041507	0.016636041507
472	3118942	7270.024876080338	0.024876080338
472	3120085	7270.032124104026	0.032124104026
472	3121500	7271.008356011999	0.008356011999
472	3122092	7271.012796024514	0.012796024514
472	3122676	7271.018196049351	0.018196049351
472	3127468	7272.028324066046	0.028324066046
472	3128069	7272.031804099158	0.031804099158
472	3129281	7272.058508076169	0.058508076169
472	3132156	7273.017556052834	0.017556052834
472	3133368	7273.04560407357	0.04560407357
472	3134545	7273.057332088719	0.057332088719
475	933	1.005	1
475	1602	1.01	86
475	3723	1.015	92
475	6901	1.02	87
475	9510	1.025	89
475	12322	1.03	90
475	14464	1.035	61
475	16812	1.04	103
475	19227	1.045	108
475	21376	1.05	78
475	23498	1.055	94
475	25787	1.06	66
475	26914	1.065	27
475	28259	1.07	93
475	29639	1.075	104
475	31240	1.08	99
475	32326	1.085	97
475	32937	1.09	50
475	34073	1.095	113
475	34335	1.1	29
475	34758	1.105	35
475	35203	1.11	41
475	35824	1.115	52
475	36638	1.12	40
475	37837	1.125	98
475	38399	1.13	63
475	39251	1.135	39
475	40554	1.14	91
475	41500	1.145	67
475	41986	1.15	50
475	42347	1.155	50
475	42348	1.16	0
475	42729	1.184021668826	29
475	42730	1.189021668826	0
475	43186	1.207970932051	44
475	43187	1.212970932051	0
475	53405	43.505	1
475	55259	43.51	64
475	58372	43.515	0
475	59828	43.52	0
475	61279	43.525	0
475	63202	43.53118677464	0
475	64460	43.53618677464	0
475	67078	43.544866298936	0
475	68628	43.549866298936	0
475	69683	43.554866298936	0
475	71211	43.559866298936	0
475	74442	43.570059331734	0
475	76524	43.575059331734	0
475	77885	43.580059331734	0
475	80212	43.588970016828	0
475	81972	43.593970016828	0
475	83367	43.598970016828	0
475	84663	43.603970016828	0
475	86350	43.608970016828	0
475	87763	43.613970016828	0
475	88842	43.618970016828	0
475	93707	43.634655589069	0
475	95091	43.639655589069	0
475	96553	43.644655589069	0
475	98348	43.649655589069	0
475	99299	43.654655589069	0
475	100887	43.660100724972	0
475	102147	43.665100724972	0
475	104391	43.672746923791	0
475	105768	43.677746923791	0
475	106915	43.682746923791	0
475	111191	43.694810061201	0
475	112679	43.699810061201	0
475	114660	43.707766734997	0
475	115671	43.712766734997	0
475	118347	43.721671814991	0
475	119719	43.726671814991	0
475	121350	43.733111640523	0
475	122848	43.738111640523	0
475	124224	43.74343371613	0
475	125852	43.74843371613	0
475	127257	43.75343371613	0
475	129044	43.75843371613	0
475	130457	43.76343371613	0
475	132793	43.770313842154	0
475	134012	43.775313842154	0
475	135931	43.781364287955	0
475	137232	43.786364287955	0
475	139095	43.791364287955	0
475	140209	43.796364287955	0
475	141711	43.802246333036	0
475	143037	43.807246333036	0
475	144548	43.812246333036	0
475	145537	43.817246333036	0
475	147304	43.822246333036	0
475	148582	43.827246333036	0
475	149968	43.832246333036	0
475	151217	43.837246333036	0
475	152594	43.842246333036	0
475	154344	43.847246333036	0
475	155849	43.852246333036	0
475	157133	43.857908986171	0
475	158488	43.862908986171	0
475	159596	43.868168313447	0
475	161002	43.873168313447	0
475	162858	43.879339748623	0
475	164336	43.884339748623	0
475	165574	43.889339748623	0
475	167123	43.896599705512	0
475	168674	43.901599705512	0
475	170281	43.906599705512	0
475	172084	43.911902583242	0
475	173162	43.916902583242	0
475	174545	43.921902583242	0
475	178304	43.935447539448	0
475	179526	43.940447539448	0
475	181975	43.954177648638	0
475	182998	43.959177648638	0
475	183691	43.964177648638	0
475	184675	43.969177648638	0
475	186035	43.974177648638	0
475	187627	43.98136171613	0
475	188583	43.98636171613	0
475	190168	43.995866826607	0
475	191616	44.000866826607	0
475	192935	44.005866826607	0
475	193901	44.010866826607	0
475	194351	44.015866826607	0
475	195435	44.023426965658	0
475	196459	44.028426965658	0
475	197697	44.033426965658	0
475	198925	44.038426965658	0
475	199227	44.043426965658	0
475	201079	44.056289142281	0
475	201959	44.061289142281	0
475	202556	44.066289142281	0
475	203437	44.071289142281	0
475	203862	44.076289142281	0
475	204570	44.085787335426	0
475	205036	44.090787335426	0
475	205735	44.095787335426	0
475	206199	44.100787335426	0
475	207043	44.105787335426	0
475	207044	44.110787335426	0
475	208231	44.133834231479	0
475	208232	44.138834231479	0
475	208248	44.505	1
475	208954	44.51	45
475	211232	44.515	0
475	213399	44.52	0
475	214830	44.525	0
475	215949	44.53	0
475	216960	44.535	0
475	217996	44.54	0
475	219149	44.545	0
475	221077	44.55	0
475	222188	44.555	0
475	223760	44.56010609851	0
475	224872	44.56510609851	0
475	226512	44.57046147671	0
475	227890	44.57546147671	0
475	231372	44.588214005962	0
475	232542	44.593214005962	0
475	236023	44.606772134405	0
475	237678	44.611772134405	0
475	238522	44.616772134405	0
475	241953	44.632403976984	0
475	243353	44.637403976984	0
475	244503	44.642403976984	0
475	245406	44.647403976984	0
475	246949	44.652403976984	0
475	248255	44.657403976984	0
475	252869	44.677978039056	0
475	253962	44.682978039056	0
475	255604	44.687978039056	0
475	256856	44.692978039056	0
475	259248	44.703882339965	0
475	260245	44.708882339965	0
475	261390	44.713882339965	0
475	262737	44.718882339965	0
475	263790	44.723882339965	0
475	265191	44.728882339965	0
475	266161	44.733882339965	0
475	267684	44.738882339965	0
475	268732	44.743882339965	0
475	270405	44.751616529856	0
475	271654	44.756616529856	0
475	273196	44.765753239991	0
475	274432	44.770753239991	0
475	275413	44.775753239991	0
475	276629	44.780753239991	0
475	277346	44.785753239991	0
475	278424	44.790753239991	0
475	279809	44.795753239991	0
475	280686	44.800753239991	0
475	282292	44.807738832072	0
475	282708	44.812738832072	0
475	284388	44.820789038306	0
475	285693	44.825789038306	0
475	286836	44.830789038306	0
475	288111	44.835789038306	0
475	289499	44.840789038306	0
475	290316	44.845789038306	0
475	291464	44.850789038306	0
475	292704	44.855789038306	0
475	293571	44.860789038306	0
475	294772	44.865789038306	0
475	296123	44.870789038306	0
475	297690	44.883004541627	0
475	298494	44.888004541627	0
475	299286	44.893004541627	0
475	301242	44.906908496981	0
475	301929	44.911908496981	0
475	302976	44.916908496981	0
475	304005	44.921908496981	0
475	304827	44.926908496981	0
475	306409	44.938989759457	0
475	306411	44.943989759457	0
475	307534	44.955591155484	0
475	307660	44.960591155484	0
475	308251	44.965831079477	0
475	308834	44.970831079477	0
475	309267	44.975831079477	0
475	309516	45.505	1
475	310259	45.51	32
475	312133	45.515	0
475	313541	45.52	0
475	314941	45.525	0
475	316250	45.53	0
475	317807	45.535	0
475	318900	45.54	0
475	320049	45.545	0
475	321646	45.55	0
475	322716	45.555	0
475	324005	45.56	0
475	325381	45.565	0
475	328733	45.581900122948	0
475	329840	45.586900122948	0
475	332815	45.60552543355	0
475	333789	45.61052543355	0
475	334751	45.61552543355	0
475	335464	45.62052543355	0
475	336564	45.627343153547	0
475	337238	45.632343153547	0
475	338888	45.637648025926	0
475	339560	45.642648025926	0
475	342216	45.656455058492	0
475	343204	45.661455058492	0
475	344214	45.666455058492	0
475	346365	45.677093320851	0
475	347477	45.682093320851	0
475	350302	45.699516309427	0
475	351212	45.704516309427	0
475	352445	45.714357192476	0
475	353309	45.719357192476	0
475	354122	45.724357192476	0
475	354711	45.729357192476	0
475	357513	45.746171406835	0
475	358212	45.751171406835	0
475	359824	45.757964044843	0
475	360229	45.762964044843	0
475	361069	45.767964044843	0
475	362198	45.775789844583	0
475	362730	45.780789844583	0
475	363966	45.787416403968	0
475	364389	45.792416403968	0
475	365718	45.800510032672	0
475	366568	45.805510032672	0
475	367498	45.810510032672	0
475	368610	45.815510032672	0
475	369440	45.820510032672	0
475	370244	45.825510032672	0
475	371775	45.830760047377	0
475	372895	45.835760047377	0
475	373739	45.840760047377	0
475	374437	45.845760047377	0
475	376053	45.857588073665	0
475	376749	45.862588073665	0
475	377048	45.867588073665	0
475	377713	45.874184055247	0
475	378540	45.879184055247	0
475	379086	45.884184055247	0
475	380212	45.889764952146	0
475	381215	45.894764952146	0
475	381795	45.899764952146	0
475	382786	45.906932118099	0
475	383349	45.911932118099	0
475	383498	45.916932118099	0
475	385038	45.93154896662	0
475	385184	45.93654896662	0
475	386602	45.973384084602	0
475	386728	45.978384084602	0
475	387186	45.984460993536	0
475	387191	45.989460993536	0
475	387765	45.997357860589	0
475	387999	46.002357860589	0
475	388006	46.505	1
475	388138	46.51	0
475	390340	46.516072775546	45
475	392186	46.521072775546	0
475	395965	46.535515416904	0
475	396931	46.540515416904	0
475	398415	46.545515416904	0
475	399680	46.552463642871	0
475	401057	46.557463642871	0
475	402663	46.562463642871	0
475	403828	46.567463642871	0
475	405212	46.574454206112	0
475	406031	46.579454206112	0
475	408388	46.589362458718	0
475	409682	46.594362458718	0
475	410675	46.599362458718	0
475	411911	46.604362458718	0
475	412771	46.610637238523	0
475	414140	46.615637238523	0
475	415019	46.620637238523	0
475	416317	46.625637238523	0
475	422421	46.653398386094	0
475	423449	46.658398386094	0
475	424705	46.663398386094	0
475	425708	46.670710323655	0
475	426708	46.675710323655	0
475	428261	46.681170455193	0
475	429544	46.686170455193	0
475	430501	46.691170455193	0
475	432001	46.696436341914	0
475	433607	46.701436341914	0
475	434439	46.706436341914	0
475	435285	46.711436341914	0
475	436233	46.716436341914	0
475	437106	46.721436341914	0
475	440140	46.733026640527	0
475	441382	46.738026640527	0
475	442406	46.743026640527	0
475	443646	46.748026640527	0
475	444508	46.753026640527	0
475	445537	46.758026640527	0
475	446613	46.763026640527	0
475	447985	46.768026640527	0
475	449184	46.773026640527	0
475	450824	46.77897219571	0
475	451849	46.78397219571	0
475	453085	46.78897219571	0
475	454493	46.794202684989	0
475	455648	46.799202684989	0
475	456916	46.804202684989	0
475	458022	46.809202684989	0
475	459198	46.814202684989	0
475	461509	46.825853185987	0
475	462614	46.830853185987	0
475	463767	46.836411381592	0
475	465029	46.841411381592	0
475	467223	46.8527756658	0
475	468206	46.8577756658	0
475	469350	46.863487194854	0
475	470372	46.868487194854	0
475	471363	46.873487194854	0
475	472289	46.878487194854	0
475	473386	46.883487194854	0
475	474886	46.891384783157	0
475	475813	46.896384783157	0
475	476857	46.901470208098	0
475	477673	46.906470208098	0
475	479405	46.9139994764	0
475	480561	46.9189994764	0
475	481406	46.9239994764	0
475	482128	46.929283803384	0
475	483176	46.934283803384	0
475	484022	46.939283803384	0
475	484768	46.944283803384	0
475	485911	46.949283803384	0
475	487039	46.954283803384	0
475	488439	46.964884232908	0
475	489011	46.969884232908	0
475	489830	46.974884232908	0
475	490814	46.98105569598	0
475	491668	46.98605569598	0
475	492263	46.99105569598	0
475	492521	46.99605569598	0
475	494198	47.007398773208	0
475	494793	47.012398773208	0
475	495919	47.025540921425	0
475	495920	47.030540921425	0
475	496618	47.038888896257	0
475	497498	47.043888896257	0
475	498377	47.048888896257	0
475	498957	47.053888896257	0
475	499417	47.060276416595	0
475	499418	47.065276416595	0
475	499556	47.505	1
475	501096	47.51	37
475	502824	47.515	0
475	504326	47.52	0
475	505560	47.525	0
475	507541	47.533013474436	0
475	508969	47.538013474436	0
475	510354	47.543013474436	0
475	511507	47.548013474436	0
475	513675	47.556983617193	0
475	514755	47.561983617193	0
475	516043	47.566983617193	0
475	517241	47.571983617193	0
475	520606	47.587236557026	0
475	521960	47.592236557026	0
475	522951	47.597236557026	0
475	524461	47.602236557026	0
475	525148	47.607236557026	0
475	526489	47.613168186682	0
475	527571	47.618168186682	0
475	528665	47.623168186682	0
475	530025	47.628168186682	0
475	531016	47.633168186682	0
475	531993	47.638168186682	0
475	533404	47.643937853619	0
475	534139	47.648937853619	0
475	537080	47.662581278946	0
475	537970	47.667581278946	0
475	539236	47.672581278946	0
475	540785	47.679142094823	0
475	541744	47.684142094823	0
475	544566	47.698768902197	0
475	545742	47.703768902197	0
475	546997	47.708768902197	0
475	547810	47.713768902197	0
475	549801	47.724365799022	0
475	550598	47.729365799022	0
475	551696	47.734365799022	0
475	552406	47.739365799022	0
475	553356	47.744365799022	0
475	557117	47.763065726947	0
475	558217	47.768065726947	0
475	559162	47.773065726947	0
475	560295	47.778065726947	0
475	561136	47.783065726947	0
475	561848	47.788065726947	0
475	563106	47.793065726947	0
475	563964	47.798065726947	0
475	566589	47.813890208322	0
475	567580	47.818890208322	0
475	568117	47.823890208322	0
475	568571	47.828890208322	0
475	569586	47.833890208322	0
475	570725	47.838890208322	0
475	571540	47.843890208322	0
475	572555	47.848920465223	0
475	573555	47.853920465223	0
475	574358	47.858920465223	0
475	575078	47.865896293855	0
475	576101	47.870896293855	0
475	576783	47.875896293855	0
475	578400	47.881006347146	0
475	579649	47.886006347146	0
475	579783	47.891006347146	0
475	580802	47.897308570824	0
475	581782	47.902308570824	0
475	582602	47.907866086438	0
475	583450	47.912866086438	0
475	583887	47.917866086438	0
475	584743	47.922866086438	0
475	585311	47.927866086438	0
475	586152	47.932866086438	0
475	586754	47.937866086438	0
475	587323	47.942866086438	0
475	589051	47.960445509748	0
475	589052	47.965445509748	0
475	590061	47.977959933392	0
475	590832	47.982959933392	0
475	591424	47.987959933392	0
475	592366	48.010783948395	0
475	592838	48.015783948395	0
475	592839	48.020783948395	0
475	592846	48.505	1
475	592856	48.51	0
475	594407	48.5182288857	20
475	596164	48.5232288857	0
475	597135	48.5282288857	0
475	598129	48.5332288857	0
475	598672	48.5382288857	0
475	599668	48.5432288857	0
475	600820	48.5482288857	0
475	601531	48.5532288857	0
475	602674	48.560266624713	0
475	603916	48.565266624713	0
475	605167	48.572024478667	0
475	605983	48.577024478667	0
475	607214	48.585273637685	0
475	607901	48.590273637685	0
475	609041	48.595273637685	0
475	609755	48.600273637685	0
475	611133	48.605273637685	0
475	611815	48.610273637685	0
475	612905	48.615273637685	0
475	613586	48.620273637685	0
475	614169	48.625273637685	0
475	614703	48.630273637685	0
475	614881	48.636856496117	0
475	615787	48.641856496117	0
475	616487	48.646856496117	0
475	616907	48.655100931234	0
475	617201	48.660100931234	0
475	618159	48.666127122456	0
475	618571	48.671127122456	0
475	619432	48.676127122456	0
475	620646	48.681127122456	0
475	621365	48.686127122456	0
475	622497	48.692834195298	0
475	623298	48.697834195298	0
475	624764	48.704474572106	0
475	625557	48.709474572106	0
475	625984	48.715274222912	0
475	626803	48.720274222912	0
475	630731	48.782450761649	0
475	631295	48.787450761649	0
475	631719	48.792450761649	0
475	631720	48.797450761649	0
475	632155	49.505	1
475	633148	49.51	33
475	635276	49.515	0
475	637917	49.52	0
475	639250	49.525	0
475	641016	49.53	0
475	642718	49.535	0
475	643995	49.54	0
475	645521	49.545	0
475	646652	49.553164844762	0
475	647792	49.558164844762	0
475	648659	49.563164844762	0
475	649558	49.568164844762	0
475	651083	49.573164844762	0
475	652885	49.578164844762	0
475	654187	49.583164844762	0
475	655724	49.588164844762	0
475	658514	49.596446811803	0
475	659343	49.601446811803	0
475	662704	49.613543216048	0
475	664251	49.618543216048	0
475	665913	49.623543216048	0
475	667197	49.628543216048	0
475	668626	49.633543216048	0
475	670025	49.638543216048	0
475	670994	49.643543216048	0
475	671817	49.648543216048	0
475	674499	49.659946235168	0
475	675925	49.664946235168	0
475	678125	49.673605100739	0
475	679108	49.678605100739	0
475	680639	49.687019290961	0
475	681245	49.692019290961	0
475	683712	49.703781748063	0
475	684733	49.708781748063	0
475	685728	49.713781748063	0
475	686391	49.718781748063	0
475	687667	49.723869125151	0
475	688475	49.728869125151	0
475	689923	49.738143518243	0
475	690640	49.743143518243	0
475	691794	49.748143518243	0
475	692243	49.753143518243	0
475	693251	49.758143518243	0
475	694615	49.763143518243	0
475	695637	49.768143518243	0
475	696638	49.773143518243	0
475	696941	49.778143518243	0
475	698131	49.786427931967	0
475	698820	49.791427931967	0
475	700083	49.799319616433	0
475	701508	49.804319616433	0
475	701637	49.809319616433	0
475	702089	49.815397753519	0
475	703030	49.820397753519	0
475	703597	49.825397753519	0
475	704603	49.83047952944	0
475	704729	49.83547952944	0
475	705769	49.841685767225	0
475	706635	49.846685767225	0
475	707246	49.861760711754	0
475	707251	49.866760711754	0
475	707858	49.874525540177	0
475	708458	49.879525540177	0
475	708459	49.884525540177	0
475	709062	49.905539677504	0
475	709063	49.910539677504	0
475	709479	50.505	1
475	711299	50.51	46
475	714060	50.515	0
475	715889	50.52	0
475	718153	50.529006960624	0
475	719281	50.534006960624	0
475	720858	50.539006960624	0
475	722528	50.544006960624	2
475	724058	50.549006960624	0
475	725638	50.554006960624	0
475	726812	50.559006960624	0
475	728720	50.566777026712	42
475	731707	50.571777026712	45
475	733937	50.576777026712	52
475	736572	50.581777026712	72
475	738815	50.586777026712	43
475	741754	50.591777026712	78
475	744335	50.596777026712	39
475	746876	50.601777026712	42
475	749155	50.606777026712	60
475	751479	50.611777026712	41
475	753472	50.616777026712	17
475	755532	50.621777026712	62
475	756567	50.626777026712	0
475	758271	50.631777026712	27
475	760013	50.636777026712	44
475	761425	50.641777026712	0
475	763828	50.647484708391	49
475	765081	50.652484708391	0
475	766616	50.657484708391	65
475	768509	50.662484708391	71
475	769790	50.667484708391	0
475	771796	50.673991757454	52
475	773143	50.678991757454	11
475	775317	50.683991757454	33
475	776780	50.688991757454	31
475	778220	50.693991757454	32
475	779931	50.698991757454	25
475	781715	50.703991757454	24
475	782860	50.708991757454	0
475	784399	50.713991757454	0
475	785307	50.718991757454	0
475	786923	50.723991757454	0
475	788059	50.728991757454	0
475	789256	50.733991757454	0
475	789946	50.738991757454	0
475	791240	50.743991757454	0
475	791958	50.748991757454	0
475	793622	50.756344222455	0
475	794629	50.761344222455	0
475	796064	50.766344222455	0
475	797093	50.771344222455	0
475	798132	50.776344222455	0
475	799559	50.781344222455	0
475	800834	50.786344222455	0
475	801952	50.791344222455	0
475	803124	50.79665365505	0
475	804301	50.80165365505	0
475	805512	50.80665365505	0
475	807407	50.816040597866	0
475	808332	50.821040597866	0
475	809164	50.826040597866	0
475	810454	50.833255315199	0
475	812128	50.838255315199	0
475	813868	50.843255315199	0
475	815336	50.853945236069	0
475	816223	50.858945236069	0
475	817099	50.863945236069	0
475	818943	50.87157527229	0
475	819829	50.87657527229	0
475	820827	50.88157527229	0
475	823298	50.893105961824	0
475	824702	50.898105961824	0
475	826020	50.903769344283	0
475	827198	50.908769344283	0
475	828443	50.913769344283	0
475	829572	50.920553047972	0
475	830647	50.925553047972	0
475	831062	50.930553047972	0
475	832238	50.935553047972	0
475	833121	50.940553047972	0
475	833842	50.945553047972	0
475	835719	50.958780146522	0
475	836034	50.963780146522	0
475	837130	50.969379377955	0
475	837583	50.974379377955	0
475	838446	50.979379377955	0
475	838447	50.984379377955	0
475	839743	50.995338467646	0
475	840550	51.000338467646	0
475	841029	51.006867153368	0
475	841030	51.011867153368	0
475	841200	51.505	1
475	842463	51.51	38
475	844741	51.515	0
475	846217	51.52	0
475	847996	51.525	0
475	849825	51.53485598726	0
475	851369	51.53985598726	0
475	852448	51.54485598726	0
475	853988	51.54985598726	0
475	854981	51.55485598726	0
475	857107	51.561811466311	0
475	857973	51.566811466311	0
475	859553	51.572854856044	0
475	860865	51.577854856044	0
475	862032	51.582854856044	0
475	863479	51.587854856044	0
475	865033	51.592854856044	0
475	866811	51.601951612459	0
475	868529	51.606951612459	0
475	869140	51.611951612459	0
475	870097	51.616951612459	0
475	874275	51.632175226411	0
475	874982	51.637175226411	0
475	876403	51.642175226411	0
475	877918	51.648862324129	0
475	879351	51.653862324129	0
475	880599	51.660295273449	0
475	881625	51.665295273449	0
475	882696	51.670295273449	0
475	883708	51.675295273449	0
475	885663	51.683576744737	0
475	887587	51.688576744737	0
475	888585	51.693576744737	0
475	889698	51.698576744737	0
475	890892	51.703576744737	0
475	891898	51.708576744737	0
475	893472	51.713576744737	0
475	894444	51.718576744737	0
475	895496	51.723576744737	0
475	896214	51.728576744737	0
475	897070	51.733576744737	0
475	898277	51.738576744737	0
475	899867	51.743576744737	0
475	901079	51.748576744737	0
475	902179	51.755089190225	0
475	903459	51.760089190225	0
475	904903	51.765089190225	0
475	905869	51.770089190225	0
475	907098	51.775089190225	0
475	908285	51.780089190225	0
475	909490	51.785089190225	0
475	910471	51.790089190225	0
475	911546	51.795089190225	0
475	912365	51.800089190225	0
475	913535	51.805089190225	0
475	914124	51.810089190225	0
475	914691	51.815089190225	0
475	916269	51.820089190225	0
475	916999	51.825089190225	0
475	919042	51.840253610885	0
475	920299	51.845253610885	0
475	921630	51.850253610885	0
475	922664	51.855253610885	0
475	923255	51.860253610885	0
475	923688	51.865253610885	0
475	923976	51.870253610885	0
475	925027	51.87638282294	0
475	925596	51.88138282294	0
475	928093	51.909429986901	0
475	928555	51.914429986901	0
475	928556	51.919429986901	0
475	929154	51.963396885308	0
475	929155	51.968396885308	0
475	929446	52.505	1
475	929860	52.51	24
475	931556	52.515	0
475	932823	52.52	0
475	934383	52.526425346422	0
475	935244	52.531425346422	0
475	935980	52.538129357797	0
475	936836	52.543129357797	0
475	937809	52.548129357797	0
475	939093	52.555077970265	0
475	940523	52.560077970265	0
475	941650	52.565077970265	0
475	942450	52.571261992916	0