version 2
run AODVScenario_1g-0-20121101-17:42:16-2864
attr configname AODVScenario_1g
attr datetime 20121101-17:42:16
attr experiment AODVScenario_1g
attr inifile AODV.ini
attr iterationvars ""
attr iterationvars2 $repetition=0
attr measurement ""
attr network csma802154net
attr processid 2864
attr repetition 0
attr replication #0
attr resultdir results
attr runnumber 0
attr seedset 0

vector 511  csma802154net.dataCentricNetworkMan  RREQPacketFrequency  ETV
vector 512  csma802154net.dataCentricNetworkMan  DiscoveryPacketFrequency  ETV
vector 513  csma802154net.dataCentricNetworkMan  RegisterPacketFrequency  ETV
vector 514  csma802154net.dataCentricNetworkMan  RReplyPacketFrequency  ETV
vector 515  csma802154net.dataCentricNetworkMan  AODVDataPacketFrequency  ETV
vector 518  csma802154net.dataCentricNetworkMan  pendingRegistrationVector  ETV
vector 517  csma802154net.dataCentricNetworkMan  pendingRREQVector  ETV
vector 538  csma802154net.fixhost[19].udpApp  "End-to-end delay"  ETV
vector 508  csma802154net.dataCentricNetworkMan  dataPacketE2EDelay  ETV
vector 539  csma802154net.fixhost[20].udpApp  "End-to-end delay"  ETV
vector 525  csma802154net.fixhost[6].udpApp  "End-to-end delay"  ETV
vector 528  csma802154net.fixhost[9].udpApp  "End-to-end delay"  ETV
vector 536  csma802154net.fixhost[17].udpApp  "End-to-end delay"  ETV
vector 520  csma802154net.fixhost[1].udpApp  "End-to-end delay"  ETV
vector 521  csma802154net.fixhost[2].udpApp  "End-to-end delay"  ETV
vector 522  csma802154net.fixhost[3].udpApp  "End-to-end delay"  ETV
vector 529  csma802154net.fixhost[10].udpApp  "End-to-end delay"  ETV
vector 535  csma802154net.fixhost[16].udpApp  "End-to-end delay"  ETV
vector 530  csma802154net.fixhost[11].udpApp  "End-to-end delay"  ETV
508	596904	70.013756059794	0.013756059794
508	597501	70.018516086342	0.018516086342
508	598112	70.04127604399	0.04127604399
508	600928	71.018516053175	0.018516053175
508	601522	71.023884075169	0.023884075169
508	608495	73.034436080196	0.034436080196
508	609893	73.056684115914	0.056684115914
508	611800	73.067812137198	0.067812137198
508	766681	670.010876059795	0.010876059795
508	767280	670.014996086343	0.014996086343
508	767889	670.017524043991	0.017524043991
508	770673	671.01627607517	0.01627607517
508	771314	671.022284053176	0.022284053176
508	947704	673.031236080196	0.031236080196
508	950928	673.0630841372	0.0630841372
508	952039	673.067884115913	0.067884115913
508	1107059	1270.012476059795	0.012476059795
508	1107673	1270.015924043991	0.015924043991
508	1108300	1270.018764086343	0.018764086343
508	1111087	1271.018196053176	0.018196053176
508	1111681	1271.02452407517	0.02452407517
508	1115610	1272.02896406571	0.02896406571
508	1116632	1272.03532409598	0.03532409598
508	1169086	1272.193086746063	0.193086746063
508	1178571	1273.039836102238	0.039836102238
508	1179881	1273.06711606652	0.06711606652
508	1181180	1273.142556123524	0.142556123524
508	1336331	1870.011196043991	0.011196043991
508	1337868	1870.039852059795	0.039852059795
508	1338464	1870.044932086343	0.044932086343
508	1342122	1871.022316066106	0.022316066106
508	1342720	1871.0456040881	0.0456040881
508	1347001	1872.032196084582	0.032196084582
508	1348819	1872.067564147688	0.067564147688
508	1350082	1872.075740122472	0.075740122472
508	1354455	1873.02672406652	0.02672406652
508	1356298	1873.034964102237	0.034964102237
508	1358213	1873.061772123523	0.061772123523
508	1513366	2470.012156043991	0.012156043991
508	1513998	2470.036404059795	0.036404059795
508	1514594	2470.040844086343	0.040844086343
508	1517989	2471.023596066106	0.023596066106
508	1518583	2471.0273640881	0.0273640881
508	1522603	2472.025476084582	0.025476084582
508	1525335	2472.042852122473	0.042852122473
508	1525963	2472.067420147688	0.067420147688
508	1530047	2473.02295606652	0.02295606652
508	1533445	2473.035284123524	0.035284123524
508	1534095	2473.059852102238	0.059852102238
508	1688959	3070.012156059795	0.012156059795
508	1689568	3070.01432404399	0.01432404399
508	1690470	3070.039564086343	0.039564086343
508	1694760	3071.020396066105	0.020396066105
508	1695358	3071.044644088099	0.044644088099
508	1700582	3072.029884084581	0.029884084581
508	1701194	3072.032364147687	0.032364147687
508	1702459	3072.048292122472	0.048292122472
508	1705964	3073.01783606652	0.01783606652
508	1709952	3073.034644123524	0.034644123524
508	1710605	3073.059532102238	0.059532102238
508	1865591	3670.013756059795	0.013756059795
508	1866191	3670.017236086343	0.017236086343
508	1867074	3670.043052043991	0.043052043991
508	1870759	3671.023596066104	0.023596066104
508	1871357	3671.048804088099	0.048804088099
508	1876578	3672.032052084582	0.032052084582
508	1877193	3672.035564147687	0.035564147687
508	1878457	3672.042604122473	0.042604122473
508	1882836	3673.02576406652	0.02576406652
508	1884689	3673.038236102238	0.038236102238
508	1887255	3673.054484123523	0.054484123523
508	2042147	4270.011516043991	0.011516043991
508	2042775	4270.016564059793	0.016564059793
508	2043371	4270.021644086341	0.021644086341
508	2046766	4271.021356066105	0.021356066105
508	2047360	4271.027684088099	0.027684088099
508	2051378	4272.023236084581	0.023236084581
508	2055009	4272.089180122473	0.089180122473
508	2056221	4272.093908147686	0.093908147686
508	2062710	4273.032156123521	0.032156123521
508	2063364	4273.055444102236	0.055444102236
508	2064671	4273.065300066518	0.065300066518
508	2219543	4870.010556043991	0.010556043991
508	2220165	4870.012476059795	0.012476059795
508	2220762	4870.016276086343	0.016276086343
508	2224156	4871.018796066106	0.018796066106
508	2224750	4871.0232040881	0.0232040881
508	2228771	4872.028036084582	0.028036084582
508	2230631	4872.042924122472	0.042924122472
508	2231849	4872.049252147687	0.049252147687
508	2236682	4873.024164066519	0.024164066519
508	2238075	4873.031444102238	0.031444102238
508	2239989	4873.059852123524	0.059852123524
508	2394993	5470.013756059793	0.013756059793
508	2395594	5470.017876086341	0.017876086341
508	2396205	5470.02129204399	0.02129204399
508	2399892	5471.023916066106	0.023916066106
508	2400490	5471.0475240881	0.0475240881
508	2405710	5472.032836084581	0.032836084581
508	2407227	5472.040716155209	0.040716155209
508	2407852	5472.058924147687	0.058924147687
508	2413216	5473.029284066519	0.029284066519
508	2414476	5473.036244123522	0.036244123522
508	2415718	5473.042252102237	0.042252102237
508	2570576	6070.013436059794	0.013436059794
508	2571176	6070.017236086342	0.017236086342
508	2571784	6070.01951604399	0.01951604399
508	2575176	6071.0226360881	0.0226360881
508	2575817	6071.028004066106	0.028004066106
508	2580428	6072.031484084582	0.031484084582
508	2582268	6072.041004147688	0.041004147688
508	2582899	6072.043244122473	0.043244122473
508	2589092	6073.035036123523	0.035036123523
508	2590698	6073.059604102238	0.059604102238
508	2591350	6073.06242006652	0.06242006652
508	2746210	6670.012796059795	0.012796059795
508	2746810	6670.016276086343	0.016276086343
508	2747422	6670.021932043991	0.021932043991
508	2750817	6671.0239160881	0.0239160881
508	2751455	6671.026084066106	0.026084066106
508	2756656	6672.030916084582	0.030916084582
508	2757917	6672.040044122473	0.040044122473
508	2758541	6672.042852147688	0.042852147688
508	2762299	6673.02071606652	0.02071606652
508	2766323	6673.053772123523	0.053772123523
508	2766973	6673.078412102238	0.078412102238
508	2921959	7270.014076059794	0.014076059794
508	2922560	7270.017556086342	0.017556086342
508	2923171	7270.025772043991	0.025772043991
508	2926561	7271.0197560881	0.0197560881
508	2928071	7271.046564066106	0.046564066106
508	2932675	7272.028676084582	0.028676084582
508	2934210	7272.041644122473	0.041644122473
508	2936035	7272.065644147688	0.065644147688
508	2940112	7273.02263606652	0.02263606652
508	2942919	7273.034644123524	0.034644123524
508	2943847	7273.038732102238	0.038732102238
511	1005	1.005	1
511	1146	1.01	0
511	2117	1.016456446436	150
511	4479	1.021456446436	112
511	7740	1.026456446436	118
511	11506	1.031456446436	119
511	15904	1.036456446436	81
511	18684	1.041456446436	96
511	21892	1.046456446436	108
511	24203	1.051456446436	146
511	26540	1.056456446436	72
511	28808	1.061456446436	61
511	31184	1.066456446436	109
511	33193	1.071456446436	119
511	34857	1.076456446436	111
511	36463	1.081456446436	70
511	38263	1.086456446436	110
511	39522	1.091456446436	86
511	41284	1.096456446436	134
511	42267	1.101456446436	56
511	43049	1.106456446436	77
511	43053	1.111456446436	0
511	44416	1.118638893926	110
511	44891	1.123638893926	41
511	45516	1.128638893926	71
511	45520	1.133638893926	0
511	46603	1.141899270928	84
511	47697	1.146899270928	142
511	48920	1.151899270928	69
511	50001	1.156899270928	69
511	51162	1.161899270928	125
511	52552	1.166899270928	114
511	53380	1.171899270928	58
511	53867	1.176899270928	71
511	53868	1.181899270928	0
511	54821	1.190211172359	82
511	54828	1.195211172359	0
511	55333	1.202109294049	49
511	55334	1.207109294049	0
511	56450	1.2253251239	117
511	56451	1.2303251239	0
511	57628	3.005	0
511	58252	3.01	1
511	58262	3.015	0
511	59282	3.022341120634	73
511	60718	3.027341120634	119
511	64594	3.032341120634	139
511	67731	3.037341120634	126
511	71372	3.042341120634	76
511	75760	3.047341120634	103
511	78697	3.052341120634	123
511	81308	3.057341120634	62
511	83616	3.062341120634	146
511	85406	3.067341120634	106
511	87513	3.072341120634	171
511	88753	3.077341120634	84
511	89471	3.082341120634	58
511	90967	3.087341120634	102
511	92975	3.092341120634	90
511	94084	3.097341120634	140
511	95602	3.102341120634	81
511	95609	3.107341120634	0
511	96676	3.114774544825	106
511	97475	3.119774544825	53
511	98866	3.124774544825	140
511	100048	3.129774544825	95
511	101084	3.134774544825	27
511	102067	3.139774544825	25
511	102528	3.144774544825	39
511	103087	3.149774544825	58
511	103831	3.154774544825	68
511	105564	3.159774544825	155
511	106835	3.164774544825	81
511	107258	3.169774544825	0
511	107679	3.17550938562	57
511	108207	3.18050938562	53
511	108348	3.18550938562	0
511	108982	3.192016580311	73
511	109878	3.197016580311	0
511	110085	3.202016580311	0
511	110558	3.209487949823	42
511	110693	3.214487949823	0
511	111030	3.220911683687	41
511	111165	3.225911683687	0
511	111637	3.232158353385	68
511	111638	3.237158353385	0
511	112179	3.270885848066	55
511	112180	3.275885848066	0
511	113045	4.005	0
511	113639	4.01	0
511	114506	5.005	0
511	115102	5.01	0
511	115983	6.005	0
511	116589	6.01	1
511	116596	6.015	0
511	117662	6.023383544966	109
511	119830	6.028383544966	134
511	123400	6.033383544966	101
511	126673	6.038383544966	105
511	130577	6.043383544966	64
511	134195	6.048383544966	124
511	136842	6.053383544966	130
511	139535	6.058383544966	134
511	141876	6.063383544966	63
511	143689	6.068383544966	131
511	145717	6.073383544966	132
511	147371	6.078383544966	107
511	148607	6.083383544966	83
511	150498	6.088383544966	154
511	152338	6.093383544966	144
511	153862	6.098383544966	68
511	155210	6.103383544966	50
511	157013	6.108383544966	142
511	157152	6.113383544966	0
511	158499	6.11892662017	131
511	159732	6.12392662017	70
511	161570	6.12892662017	67
511	162891	6.13392662017	125
511	163032	6.13892662017	0
511	164035	6.14476967208	94
511	164985	6.14976967208	72
511	165538	6.15476967208	26
511	166489	6.15976967208	81
511	167345	6.16476967208	59
511	168085	6.16976967208	66
511	168277	6.17476967208	0
511	169743	6.18536229017	130
511	169744	6.19036229017	0
511	170980	6.202323495854	72
511	170981	6.207323495854	0
511	171942	6.224180360891	51
511	172097	6.229180360891	0
511	173058	6.247930742322	0
511	173494	6.252930742322	0
511	174979	7.005	0
511	175120	7.01	0
511	175618	7.015	0
511	176204	8.005	1
511	176491	8.01	0
511	177108	8.021023829853	45
511	178938	8.026023829853	105
511	181379	8.031023829853	87
511	184920	8.036023829853	173
511	188503	8.041023829853	83
511	192104	8.046023829853	99
511	195915	8.051023829853	122
511	198531	8.056023829853	113
511	200768	8.061023829853	26
511	202843	8.066023829853	129
511	204864	8.071023829853	57
511	207131	8.076023829853	171
511	208290	8.081023829853	70
511	209620	8.086023829853	152
511	210816	8.091023829853	76
511	212687	8.096023829853	154
511	213663	8.101023829853	54
511	215321	8.106023829853	138
511	216357	8.111023829853	71
511	217179	8.116023829853	80
511	217180	8.121023829853	0
511	218289	8.129791864458	113
511	219493	8.134791864458	76
511	220338	8.139791864458	31
511	220739	8.144791864458	26
511	221489	8.149791864458	70
511	222294	8.154791864458	78
511	223066	8.159791864458	0
511	223521	8.164791864458	0
511	224790	8.16997512937	117
511	224925	8.17497512937	0
511	225412	8.180712989565	71
511	225413	8.185712989565	0
511	226014	8.200425124356	67
511	226015	8.205425124356	0
511	226641	8.228116149065	72
511	226642	8.233116149065	0
511	227333	9.005	0
511	228235	9.01	1
511	228236	9.015	0
511	229386	9.027667627362	140
511	231561	9.032667627362	86
511	235356	9.037667627362	104
511	238745	9.042667627362	93
511	242684	9.047667627362	119
511	245706	9.052667627362	125
511	248575	9.057667627362	136
511	250829	9.062667627362	162
511	253126	9.067667627362	116
511	255204	9.072667627362	56
511	257292	9.077667627362	136
511	259180	9.082667627362	159
511	261063	9.087667627362	153
511	263026	9.092667627362	107
511	264686	9.097667627362	85
511	265805	9.102667627362	91
511	266998	9.107667627362	37
511	268453	9.112667627362	92
511	269650	9.117667627362	71
511	271064	9.122667627362	145
511	272271	9.127667627362	70
511	273051	9.132667627362	68
511	273913	9.137667627362	32
511	274359	9.142667627362	62
511	275238	9.147667627362	69
511	276219	9.152667627362	86
511	276900	9.157667627362	55
511	277882	9.162667627362	85
511	278681	9.167667627362	76
511	279284	9.172667627362	68
511	279801	9.177667627362	49
511	280321	9.182667627362	52
511	280456	9.187667627362	0
511	280943	9.194526591451	71
511	281484	9.199526591451	55
511	281485	9.204526591451	0
511	282041	9.214188064125	58
511	282042	9.219188064125	0
511	282932	10.005	0
511	283549	10.01	0
511	283684	10.015	0
511	284147	10.020686039887	1
511	284540	10.025686039887	46
511	285191	10.030686039887	45
511	287908	10.035686039887	67
511	290766	10.040686039887	130
511	293678	10.045686039887	122
511	297194	10.050686039887	114
511	299936	10.055686039887	63
511	303531	10.060686039887	107
511	306098	10.065686039887	84
511	308406	10.070686039887	73
511	310711	10.075686039887	99
511	312822	10.080686039887	69
511	314522	10.085686039887	114
511	316606	10.090686039887	100
511	318495	10.095686039887	97
511	320533	10.100686039887	89
511	322307	10.105686039887	133
511	322918	10.110686039887	40
511	324422	10.115686039887	140
511	325409	10.120686039887	27
511	326331	10.125686039887	72
511	327360	10.130686039887	97
511	328143	10.135686039887	68
511	328813	10.140686039887	53
511	329378	10.145686039887	58
511	330815	10.150686039887	87
511	331882	10.155686039887	103
511	333248	10.160686039887	78
511	334583	10.165686039887	130
511	335244	10.170686039887	49
511	335419	10.175686039887	0
511	336341	10.184886224276	70
511	336342	10.189886224276	0
511	338074	10.214250736946	116
511	338213	10.219250736946	0
511	339027	10.224722216639	73
511	339028	10.229722216639	0
511	340635	10.268510100305	56
511	341280	10.273510100305	0
511	341784	10.278510100305	0
511	342382	10.290537857785	0
511	342383	10.295537857785	0
511	343258	11.005	0
511	343855	11.01	1
511	343856	11.015	0
511	344786	11.028797928817	105
511	346118	11.033797928817	87
511	349180	11.038797928817	133
511	352749	11.043797928817	117
511	356542	11.048797928817	118
511	359943	11.053797928817	69
511	363306	11.058797928817	68
511	366088	11.063797928817	99
511	368665	11.068797928817	112
511	370738	11.073797928817	135
511	372694	11.078797928817	129
511	374257	11.083797928817	123
511	376063	11.088797928817	108
511	377637	11.093797928817	122
511	379229	11.098797928817	153
511	380748	11.103797928817	142
511	381481	11.108797928817	62
511	382007	11.113797928817	52
511	383257	11.118797928817	75
511	384713	11.123797928817	67
511	385966	11.128797928817	139
511	387320	11.133797928817	44
511	388362	11.138797928817	67
511	389144	11.143797928817	76
511	389747	11.148797928817	68
511	390513	11.153797928817	73
511	391826	11.158797928817	123
511	392309	11.163797928817	41
511	393390	11.168797928817	45
511	393525	11.173797928817	0
511	394704	11.179878295731	64
511	395897	11.184878295731	103
511	396648	11.189878295731	0
511	397060	11.196538299516	56
511	397061	11.201538299516	0
511	397522	11.218150466876	39
511	397523	11.223150466876	0
511	398109	11.259546726354	64
511	398110	11.264546726354	0
511	399140	12.005	0
511	399788	12.01	0
511	400402	12.015	1
511	400412	12.02	0
511	401019	12.028092291565	46
511	402903	12.033092291565	172
511	406263	12.038092291565	155
511	410022	12.043092291565	42
511	413319	12.048092291565	101
511	416798	12.053092291565	97
511	420251	12.058092291565	86
511	423139	12.063092291565	126
511	425641	12.068092291565	124
511	427368	12.073092291565	93
511	429763	12.078092291565	60
511	431584	12.083092291565	117
511	433027	12.088092291565	150
511	434303	12.093092291565	43
511	436307	12.098092291565	87
511	437941	12.103092291565	88
511	439491	12.108092291565	147
511	440163	12.113092291565	55
511	441141	12.118092291565	89
511	441773	12.123092291565	73
511	442394	12.128092291565	0
511	443653	12.133092291565	66
511	444338	12.138092291565	42
511	445975	12.143092291565	41
511	446684	12.148092291565	57
511	447956	12.153092291565	94
511	448770	12.158092291565	79
511	449476	12.163092291565	61
511	450587	12.168092291565	116
511	451685	12.173092291565	139
511	452259	12.178092291565	62
511	452263	12.183092291565	0
511	452736	12.190549488489	42
511	453322	12.195549488489	64
511	453898	12.200549488489	62
511	454478	12.205549488489	62
511	454479	12.210549488489	0
511	455105	12.221085940776	72
511	455106	12.226085940776	0
511	455740	12.237594700434	73
511	456268	12.242594700434	53
511	456269	12.247594700434	0
511	457192	13.005	0
511	457993	13.01	0
511	458484	13.015	1
511	458485	13.02	0
511	459417	13.029513534851	100
511	460444	13.034513534851	54
511	464267	13.039513534851	151
511	468125	13.044513534851	136
511	470999	13.049513534851	117
511	474312	13.054513534851	130
511	477537	13.059513534851	110
511	479988	13.064513534851	102
511	482390	13.069513534851	139
511	485073	13.074513534851	142
511	487181	13.079513534851	107
511	488848	13.084513534851	133
511	490606	13.089513534851	67
511	491692	13.094513534851	47
511	492844	13.099513534851	89
511	494364	13.104513534851	167
511	495533	13.109513534851	61
511	496645	13.114513534851	78
511	498111	13.119513534851	61
511	499505	13.124513534851	73
511	500314	13.129513534851	53
511	501884	13.134513534851	114
511	503623	13.139513534851	58
511	504554	13.144513534851	0
511	505806	13.149513534851	105
511	507174	13.154513534851	83
511	508289	13.159513534851	142
511	509446	13.164513534851	124
511	510218	13.169513534851	73
511	511444	13.174513534851	103
511	511586	13.179513534851	0
511	512955	13.184806262269	105
511	513485	13.189806262269	52
511	514575	13.194806262269	139
511	514897	13.199806262269	0
511	516211	13.211226317994	93
511	516212	13.216226317994	0
511	517160	13.226354322212	72
511	517162	13.231354322212	0
511	518101	13.24222854749	73
511	518106	13.24722854749	0
511	520219	14.005	0
511	520419	14.01	0
511	521064	14.019116010947	0
511	521703	14.024116010947	0
511	522469	14.029116010947	0
511	522932	14.034116010947	1
511	523326	14.039116010947	46
511	524120	14.044116010947	94
511	526238	14.049116010947	112
511	529145	14.054116010947	83
511	532865	14.059116010947	132
511	536329	14.064116010947	114
511	539165	14.069116010947	109
511	541822	14.074116010947	117
511	544167	14.079116010947	146
511	545978	14.084116010947	82
511	547809	14.089116010947	81
511	549849	14.094116010947	123
511	552012	14.099116010947	159
511	554118	14.104116010947	137
511	555197	14.109116010947	75
511	557475	14.114116010947	152
511	559085	14.119116010947	129
511	560541	14.124116010947	101
511	561652	14.129116010947	34
511	563225	14.134116010947	86
511	564654	14.139116010947	121
511	565873	14.144116010947	136
511	566450	14.149116010947	62
511	567849	14.154116010947	144
511	568633	14.159116010947	0
511	569879	14.164116010947	138
511	570989	14.169116010947	16
511	572415	14.174116010947	82
511	573849	14.179116010947	0
511	574313	14.184116010947	37
511	574978	14.189116010947	53
511	575453	14.194116010947	68
511	576037	14.199116010947	64
511	576597	14.204116010947	58
511	577527	14.209116010947	0
511	578103	14.215843774129	57
511	578238	14.220843774129	0
511	579165	14.22725374786	106
511	579701	14.23225374786	54
511	579702	14.23725374786	0
511	580233	14.252080957005	53
511	580234	14.257080957005	0
511	596019	70.00501	0
511	596612	70.01001	0
511	597209	70.01501	0
511	599177	71.00501	0
511	599702	71.01001	0
511	600600	71.01501	0
511	601230	71.02001	0
511	602524	72.00501	0
511	602717	72.01001	0
511	603330	72.01501	0
511	604263	73.00501	0
511	604398	73.01001	0
511	605543	73.015596025975	0
511	605972	73.020596025975	0
511	606641	73.025596025975	0
511	607557	73.030596025975	0
511	608960	73.035596025975	0
511	609576	73.040596025975	0
511	609577	73.045596025975	0
511	610953	73.063612112854	0
511	612137	73.068612112854	0
511	612138	73.073612112854	0
511	765795	670.00501	0
511	766522	670.01001	0
511	767281	670.01501	0
511	769140	671.00501	0
511	769768	671.01001	0
511	770386	671.01501	0
511	770993	671.02001	0
511	772013	672.00501	1
511	772861	672.01001	28
511	774693	672.01501	0
511	775733	672.02001	0
511	777570	672.02501	3
511	779311	672.03001	0
511	780823	672.03501	0
511	781733	672.04001	0
511	782546	672.04501	0
511	783890	672.05001	0
511	785316	672.05501	0
511	786660	672.061306672056	0
511	787315	672.066306672056	0
511	788067	672.071306672056	0
511	789281	672.076306672056	0
511	790625	672.081306672056	0
511	792282	672.086306672056	0
511	793210	672.091306672056	0
511	794275	672.096306672056	0
511	795202	672.101306672056	0
511	796214	672.106306672056	0
511	797105	672.111306672056	0
511	797847	672.118735271742	0
511	798459	672.123735271742	0
511	801492	672.143966084561	0
511	802392	672.148966084561	0
511	803300	672.153966084561	0
511	803945	672.158966084561	0
511	804845	672.163966084561	0
511	805782	672.168966084561	0
511	806532	672.173966084561	0
511	807993	672.179655545301	0
511	810640	672.184655545301	56
511	813036	672.189655545301	0
511	814938	672.194655545301	0
511	816616	672.199655545301	0
511	818307	672.204655545301	31
511	820510	672.209655545301	0
511	822968	672.214655545301	0
511	824958	672.219655545301	0
511	827106	672.224655545301	0
511	829007	672.229655545301	0
511	830848	672.234655545301	0
511	833400	672.240480940026	0
511	834672	672.245480940026	0
511	836940	672.250480940026	0
511	838631	672.255480940026	0
511	840587	672.260480940026	0
511	842839	672.265480940026	0
511	844791	672.270480940026	0
511	845788	672.275480940026	0
511	847602	672.280480940026	0
511	849422	672.285480940026	0
511	851799	672.290480940026	0
511	853522	672.295480940026	0
511	855073	672.300480940026	0
511	857246	672.30693687445	0
511	859720	672.31193687445	0
511	861645	672.31693687445	0
511	863279	672.32193687445	0
511	865896	672.330111269108	0
511	866681	672.335111269108	0
511	870132	672.344894252848	0
511	872033	672.349894252848	0
511	873017	672.354894252848	0
511	874242	672.359894252848	0
511	875345	672.364894252848	0
511	877112	672.369894252848	0
511	878960	672.374894252848	0
511	880238	672.379894252848	0
511	881860	672.385910736726	0
511	883590	672.390910736726	0
511	885310	672.395910736726	0
511	886670	672.400910736726	0
511	888514	672.405910736726	0
511	890486	672.410910736726	0
511	892313	672.415910736726	0
511	893520	672.420910736726	0
511	894834	672.425910736726	0
511	896208	672.430910736726	0
511	897429	672.435910736726	0
511	900093	672.440910736726	0
511	902186	672.445910736726	0
511	903599	672.450910736726	0
511	904274	672.455910736726	0
511	905453	672.460910736726	0
511	906197	672.465910736726	0
511	907287	672.472559060619	0
511	908686	672.477559060619	0
511	909959	672.482559060619	0
511	913484	672.492665364271	0
511	914877	672.497665364271	0
511	915498	672.502665364271	0
511	917665	672.511993560508	0
511	919169	672.516993560508	0
511	919937	672.521993560508	0
511	921536	672.526993560508	0
511	922667	672.531993560508	0
511	924234	672.536993560508	0
511	925365	672.544023888489	0
511	926632	672.549023888489	0
511	928526	672.556741365281	0
511	929119	672.561741365281	0
511	932195	672.574677910419	0
511	933464	672.579677910419	0
511	933932	672.584677910419	0
511	934578	672.590983667162	0
511	935217	672.595983667162	0
511	938371	672.60960880811	0
511	939131	672.61460880811	0
511	939911	672.61960880811	0
511	941510	672.630044206822	0
511	941844	672.635044206822	0
511	943614	672.672879436295	0
511	943615	672.677879436295	0
511	944548	673.00501	0
511	944552	673.01001	0
511	945831	673.017196025975	0
511	946257	673.022196025975	0
511	947182	673.027196025975	0
511	948021	673.032196025975	0
511	949226	673.056044083662	0
511	950466	673.061044083662	0
511	951730	673.066044083662	0
511	952359	673.071044083662	0
511	1106170	1270.00501	0
511	1106766	1270.01001	0
511	1107501	1270.01501	0
511	1109522	1271.00501	0
511	1110147	1271.01001	0
511	1110573	1271.01501	0
511	1111389	1271.02001	0
511	1112863	1272.00501	0
511	1113485	1272.01001	0
511	1113489	1272.01501	0
511	1114242	1272.022606039635	1
511	1115307	1272.027606039635	0
511	1116050	1272.032606039635	0
511	1117640	1272.038116096204	80
511	1119229	1272.043116096204	116
511	1121956	1272.048116096204	186
511	1125324	1272.053116096204	76
511	1128916	1272.058116096204	84
511	1132435	1272.063116096204	94
511	1135407	1272.068116096204	93
511	1138083	1272.073116096204	128
511	1141266	1272.078116096204	129
511	1143233	1272.083116096204	63
511	1145712	1272.088116096204	127
511	1147515	1272.093116096204	108
511	1149307	1272.098116096204	71
511	1151261	1272.103116096204	136
511	1152990	1272.108116096204	94
511	1154432	1272.113116096204	57
511	1155397	1272.118116096204	82
511	1156650	1272.123116096204	88
511	1157991	1272.128116096204	129
511	1159050	1272.133116096204	77
511	1160177	1272.138116096204	53
511	1161315	1272.143116096204	95
511	1162547	1272.148116096204	134
511	1163155	1272.153116096204	68
511	1163734	1272.158116096204	62
511	1164393	1272.163116096204	0
511	1165262	1272.168116096204	25
511	1166117	1272.173116096204	90
511	1166127	1272.178116096204	0
511	1167511	1272.184406725483	17
511	1168367	1272.189406725483	53
511	1169402	1272.194406725483	52
511	1169406	1272.199406725483	0
511	1170821	1272.206871836919	69
511	1171838	1272.211871836919	53
511	1172461	1272.216871836919	72
511	1172462	1272.221871836919	0
511	1173038	1272.232951782193	62
511	1173039	1272.237951782193	0
511	1173635	1272.267968716607	66
511	1173636	1272.272968716607	0
511	1174376	1273.00501	0
511	1175207	1273.01001	0
511	1175828	1273.01501	0
511	1176424	1273.02001	0
511	1177472	1273.02501	0
511	1177646	1273.03001	0
511	1178262	1273.037516088153	0
511	1178891	1273.042516088153	0
511	1179550	1273.051036057121	0
511	1179551	1273.056036057121	0
511	1180848	1273.082316115608	0
511	1180849	1273.087316115608	0
511	1335433	1870.00501	0
511	1336157	1870.01001	0
511	1336935	1870.01501	0
511	1339686	1871.00501	0
511	1340315	1871.01001	0
511	1340919	1871.01501	0
511	1341537	1871.02001	0
511	1342427	1871.02501	0
511	1343724	1872.00501	0
511	1344528	1872.01001	0
511	1344529	1872.01501	0
511	1345333	1872.024836042574	0
511	1346437	1872.029836042574	0
511	1347306	1872.034836042574	0
511	1348337	1872.062084101893	0
511	1348644	1872.067084101893	0
511	1350397	1872.076940113652	0
511	1350398	1872.081940113652	0
511	1351006	1873.00501	0
511	1351467	1873.01001	0
511	1352596	1873.015286028008	0
511	1353199	1873.020286028008	0
511	1353866	1873.025286028008	0
511	1355505	1873.030286028008	0
511	1356431	1873.035286028008	0
511	1356619	1873.040286028008	0
511	1357882	1873.057892099178	0
511	1358550	1873.062892099178	0
511	1512206	2470.00501	0
511	1512802	2470.01001	0
511	1513705	2470.01501	0
511	1515816	2471.00501	0
511	1516442	2471.01001	0
511	1517046	2471.01501	0
511	1517661	2471.02001	0
511	1518294	2471.02501	0
511	1519754	2472.00501	0
511	1520394	2472.01001	0
511	1521404	2472.01501	0
511	1521704	2472.02001	0
511	1522431	2472.02501	0
511	1523198	2472.03001	0
511	1523641	2472.03501	0
511	1524743	2472.040604113652	0
511	1525653	2472.045604113652	0
511	1526881	2473.00501	0
511	1527844	2473.01001	0
511	1528468	2473.01501	0
511	1529137	2473.02001	0
511	1530370	2473.02501	0
511	1531824	2473.03001	0
511	1533254	2473.03501	0
511	1533782	2473.04001	0
511	1688067	3070.00501	0
511	1688666	3070.01001	0
511	1690032	3070.01501	0
511	1692327	3071.00501	0
511	1692953	3071.01001	0
511	1693691	3071.01501	0
511	1694437	3071.02001	0
511	1695065	3071.02501	0
511	1696529	3072.00501	0
511	1697300	3072.01001	0
511	1698321	3072.01501	0
511	1699068	3072.02001	0
511	1699673	3072.02501	0
511	1700583	3072.03001	0
511	1701505	3072.03501	0
511	1702138	3072.045972113651	0
511	1702774	3072.050972113651	0
511	1703711	3073.00501	0
511	1704482	3073.01001	0
511	1705628	3073.01501	0
511	1706412	3073.02001	0
511	1707613	3073.025364069986	0
511	1709327	3073.030364069986	0
511	1710289	3073.035364069986	0
511	1864416	3670.00501	0
511	1865292	3670.01001	0
511	1865899	3670.01501	0
511	1868007	3671.00501	0
511	1868951	3671.01001	0
511	1869558	3671.01501	0
511	1870170	3671.02001	0
511	1871064	3671.02501	0
511	1872361	3672.00501	0
511	1873168	3672.01001	0
511	1873969	3672.01501	0
511	1874609	3672.02001	0
511	1875497	3672.02501	0
511	1875970	3672.03001	0
511	1877018	3672.03501	0
511	1878772	3672.043804113652	0
511	1878773	3672.048804113652	0
511	1879513	3673.00501	0
511	1880347	3673.01001	0
511	1880974	3673.01501	0
511	1881702	3673.02001	0
511	1882640	3673.02501	0
511	1883758	3673.03001	0
511	1884377	3673.03501	0
511	1885009	3673.04001	0
511	1886924	3673.050604099178	0
511	1887592	3673.055604099178	0
511	2041091	4270.00501	0
511	2041844	4270.01001	0
511	2042486	4270.01501	0
511	2044593	4271.00501	0
511	2045216	4271.01001	0
511	2045829	4271.01501	0
511	2046444	4271.02001	0
511	2047068	4271.02501	0
511	2048364	4272.00501	0
511	2049171	4272.01001	0
511	2049972	4272.01501	0