file 209312 1353498051                                          
version 2
run AODVScenario_1f-15-20121121-11:40:37-1860
attr configname AODVScenario_1f
attr datetime 20121121-11:40:37
attr experiment AODVScenario_1f
attr inifile AODV.ini
attr iterationvars $numNodes=65
attr iterationvars2 "$numNodes=65, $repetition=0"
attr measurement $numNodes=65
attr network csma802154net
attr numNodes 65
attr processid 1860
attr repetition 0
attr replication #0
attr resultdir results
attr runnumber 15
attr seedset 15

vector 271  csma802154net.dataCentricNetworkMan  RREQPacketFrequency  ETV
vector 272  csma802154net.dataCentricNetworkMan  RERRPacketFrequency  ETV
vector 273  csma802154net.dataCentricNetworkMan  DiscoveryPacketFrequency  ETV
vector 274  csma802154net.dataCentricNetworkMan  RegisterPacketFrequency  ETV
vector 275  csma802154net.dataCentricNetworkMan  RReplyPacketFrequency  ETV
vector 276  csma802154net.dataCentricNetworkMan  AODVDataPacketFrequency  ETV
vector 283  csma802154net.dataCentricNetworkMan  pendingRegistrationVector  ETV
vector 282  csma802154net.dataCentricNetworkMan  pendingRREQVector  ETV
vector 280  csma802154net.dataCentricNetworkMan  PendingDataPacketsVector  ETV
vector 294  csma802154net.fixhost[10].udpApp  "End-to-end delay"  ETV
vector 268  csma802154net.dataCentricNetworkMan  dataPacketE2EDelay  ETV
vector 296  csma802154net.fixhost[12].udpApp  "End-to-end delay"  ETV
vector 299  csma802154net.fixhost[15].udpApp  "End-to-end delay"  ETV
vector 298  csma802154net.fixhost[14].udpApp  "End-to-end delay"  ETV
vector 304  csma802154net.fixhost[20].udpApp  "End-to-end delay"  ETV
vector 303  csma802154net.fixhost[19].udpApp  "End-to-end delay"  ETV
vector 286  csma802154net.fixhost[2].udpApp  "End-to-end delay"  ETV
vector 291  csma802154net.fixhost[7].udpApp  "End-to-end delay"  ETV
vector 293  csma802154net.fixhost[9].udpApp  "End-to-end delay"  ETV
vector 289  csma802154net.fixhost[5].udpApp  "End-to-end delay"  ETV
vector 288  csma802154net.fixhost[4].udpApp  "End-to-end delay"  ETV
vector 292  csma802154net.fixhost[8].udpApp  "End-to-end delay"  ETV
268	2083 7023 338627 1471788 70.026556032507 7273.080332112184 156 0.010876032508 0.096860141817 5.364901787856 0.23819896810305
271	9106 29810 692 1471962 1.005 7273.089932098327 1075 0 65 1155 43699
272	38916 29773 692 1471962 1.005 7273.089932098327 1075 0 0 0 0
273	68689 29773 692 1471962 1.005 7273.089932098327 1075 0 0 0 0
274	98462 29773 692 1471962 1.005 7273.089932098327 1075 0 1 12 12
275	128235 29785 692 1471962 1.005 7273.089932098327 1075 0 60 964 21124
276	158020 29788 692 1471962 1.005 7273.089932098327 1075 0 58 1012 17092
280	187808 12652 337693 1471788 70 7273.080332112184 416 0 3 520 1040
282	200460 1250 21107 317486 43.50001 54.611021671658 45 0 1 16 16
283	201710 579 21102 332194 43.5 54.790340960391 24 0 1 12 12
286	202289 587 344371 1464318 72.018836057482 7272.015956057483 13 0.015636057483 0.049764087387 0.275716836986 0.0068516231951057
288	202876 578 350285 1469221 73.08815609553 7273.031444095531 13 0.027356095531 0.08815609553 0.560205241892 0.028278537576911
289	203454 588 349546 1471788 73.059284112184 7273.080332112184 13 0.028956112186 0.081220112183 0.632093458407 0.0343644131345
291	204042 587 345054 1465680 72.029284080951 7272.033372080952 13 0.024484080952 0.070380110187 0.459717140079 0.018823740049884
292	204629 588 350972 1470745 73.096860141817 7273.064292141816 13 0.035636141817 0.096860141817 0.792565843622 0.052303044590532
293	205217 587 346077 1466027 72.040012127154 7272.037172097254 13 0.032156127156 0.061132127155 0.533613593217 0.022847270397944
294	205804 587 338627 1458419 70.026556032507 7270.013756032508 13 0.010876032508 0.026556032507 0.185228422599 0.0028144276106342
296	206391 585 338948 1458741 70.031316049611 7270.017876049612 13 0.015316049612 0.031316049611 0.24422864495 0.0047737966010639
298	206976 587 340776 1460569 71.018836059644 7271.016916059644 13 0.014356059642 0.018836059644 0.221756775367 0.0038043383407141
299	207563 577 339269 1459062 70.03543606318 7270.021996063181 13 0.020076063181 0.03543606318 0.301948821346 0.0071853151624619
303	208140 587 342842 1462010 71.057332101509 7271.033972101507 13 0.023556101509 0.062060101509 0.482677319611 0.020079953047634
304	208727 585 342486 1462791 71.042252129984 7271.065220129982 13 0.037524129984 0.065220129982 0.67514968978 0.036072508395663
