version 2
run AODVScenario_1f-69-20121119-16:32:31-1376
attr configname AODVScenario_1f
attr datetime 20121119-16:32:31
attr experiment AODVScenario_1f
attr inifile AODV.ini
attr iterationvars $numNodes=119
attr iterationvars2 "$numNodes=119, $repetition=0"
attr measurement $numNodes=119
attr network csma802154net
attr numNodes 119
attr processid 1376
attr repetition 0
attr replication #0
attr resultdir results
attr runnumber 69
attr seedset 69

vector 487  csma802154net.dataCentricNetworkMan  RREQPacketFrequency  ETV
vector 488  csma802154net.dataCentricNetworkMan  RERRPacketFrequency  ETV
vector 489  csma802154net.dataCentricNetworkMan  DiscoveryPacketFrequency  ETV
vector 490  csma802154net.dataCentricNetworkMan  RegisterPacketFrequency  ETV
vector 491  csma802154net.dataCentricNetworkMan  RReplyPacketFrequency  ETV
vector 492  csma802154net.dataCentricNetworkMan  AODVDataPacketFrequency  ETV
vector 499  csma802154net.dataCentricNetworkMan  pendingRegistrationVector  ETV
vector 498  csma802154net.dataCentricNetworkMan  pendingRREQVector  ETV
vector 496  csma802154net.dataCentricNetworkMan  PendingDataPacketsVector  ETV
vector 503  csma802154net.fixhost[3].udpApp  "End-to-end delay"  ETV
vector 484  csma802154net.dataCentricNetworkMan  dataPacketE2EDelay  ETV
vector 504  csma802154net.fixhost[4].udpApp  "End-to-end delay"  ETV
vector 507  csma802154net.fixhost[7].udpApp  "End-to-end delay"  ETV
vector 513  csma802154net.fixhost[13].udpApp  "End-to-end delay"  ETV
vector 515  csma802154net.fixhost[15].udpApp  "End-to-end delay"  ETV
vector 514  csma802154net.fixhost[14].udpApp  "End-to-end delay"  ETV
vector 523  csma802154net.fixhost[23].udpApp  "End-to-end delay"  ETV
vector 511  csma802154net.fixhost[11].udpApp  "End-to-end delay"  ETV
vector 505  csma802154net.fixhost[5].udpApp  "End-to-end delay"  ETV
vector 502  csma802154net.fixhost[2].udpApp  "End-to-end delay"  ETV
484	1048873	70.008356019714	0.008356019714
484	1049983	70.016596047484	0.016596047484
484	1050546	70.018196048768	0.018196048768
484	1054504	71.064876046749	0.064876046749
484	1056862	71.102444110539	0.102444110539
484	1058046	71.110980083618	0.110980083618
484	1061183	72.021676083717	0.021676083717
484	1062415	72.032236067931	0.032236067931
484	1068010	73.035636126766	0.035636126766
484	1069239	73.098324097018	0.098324097018
484	1216061	670.008036019714	0.008036019714
484	1217161	670.018196048768	0.018196048768
484	1217693	670.019796047484	0.019796047484
484	1222289	671.033116083618	0.033116083618
484	1222857	671.039772046749	0.039772046749
484	1224652	671.070052110538	0.070052110538
484	1227795	672.021996083717	0.021996083717
484	1229027	672.03465206793	0.03465206793
484	1234220	673.034716097019	0.034716097019
484	1236139	673.067812126767	0.067812126767
484	1382959	1270.008676019714	0.008676019714
484	1384314	1270.018516047484	0.018516047484
484	1384900	1270.042444048768	0.042444048768
484	1388581	1271.021356046749	0.021356046749
484	1390015	1271.028316083618	0.028316083618
484	1391807	1271.058284110539	0.058284110539
484	1395578	1272.025764083717	0.025764083717
484	1396186	1272.03241206793	0.03241206793
484	1402074	1273.035316126767	0.035316126767
484	1403305	1273.055692097017	0.055692097017
484	1550246	1870.007396019714	0.007396019714
484	1551601	1870.017556047484	0.017556047484
484	1552187	1870.041484048768	0.041484048768
484	1555315	1871.022316046749	0.022316046749
484	1557639	1871.035852083617	0.035852083617
484	1559728	1871.065892110536	0.065892110536
484	1563490	1872.023596083715	0.023596083715
484	1564098	1872.02672406793	0.02672406793
484	1568845	1873.027996097016	0.027996097016
484	1571172	1873.056044126766	0.056044126766
484	1717992	2470.007396019714	0.007396019714
484	1719093	2470.016596048768	0.016596048768
484	1719651	2470.021004047484	0.021004047484
484	1722812	2471.021676046749	0.021676046749
484	1725135	2471.039124083617	0.039124083617
484	1726347	2471.047332110538	0.047332110538
484	1729747	2472.022636083717	0.022636083717
484	1732364	2472.075220067931	0.075220067931
484	1738082	2473.032436126767	0.032436126767
484	1739484	2473.060420097019	0.060420097019
484	1886306	3070.008356019714	0.008356019714
484	1887661	3070.016276047484	0.016276047484
484	1888247	3070.039564048768	0.039564048768
484	1891617	3071.024556046749	0.024556046749
484	1894221	3071.059884110538	0.059884110538
484	1895406	3071.083780083617	0.083780083617
484	1898550	3072.023276083717	0.023276083717
484	1900633	3072.05513206793	0.05513206793
484	1905394	3073.029916097019	0.029916097019
484	1908323	3073.058284126767	0.058284126767
484	2055262	3670.008996019713	0.008996019713
484	2056373	3670.017236047483	0.017236047483
484	2056954	3670.020684048767	0.020684048767
484	2063015	3671.046740046749	0.046740046749
484	2063621	3671.060452110538	0.060452110538
484	2064213	3671.064188083616	0.064188083616
484	2067980	3672.021676083717	0.021676083717
484	2068584	3672.024164067931	0.024164067931
484	2075066	3673.035284097018	0.035284097018
484	2076233	3673.057004126766	0.057004126766
484	2223053	4270.008996019714	0.008996019714
484	2224164	4270.018516047483	0.018516047483
484	2224745	4270.022924048767	0.022924048767
484	2228428	4271.027044046747	0.027044046747
484	2230487	4271.041324110536	0.041324110536
484	2231677	4271.056724083616	0.056724083616
484	2235722	4272.01847606793	0.01847606793
484	2236875	4272.042404083714	0.042404083714
484	2242757	4273.034356126765	0.034356126765
484	2243987	4273.060172097014	0.060172097014
484	2390809	4870.008676019714	0.008676019714
484	2391920	4870.016596047483	0.016596047483
484	2392501	4870.023244048768	0.023244048768
484	2396189	4871.030884046749	0.030884046749
484	2398235	4871.046764110539	0.046764110539
484	2399992	4871.067852083617	0.067852083617
484	2403227	4872.019756067931	0.019756067931
484	2404374	4872.026724083717	0.026724083717
484	2409124	4873.031836097019	0.031836097019
484	2412051	4873.064044126767	0.064044126767
484	2558990	5470.008356019714	0.008356019714
484	2560101	5470.016276047484	0.016276047484
484	2560682	5470.020364048768	0.020364048768
484	2564338	5471.025836046749	0.025836046749
484	2565522	5471.032796083617	0.032796083617
484	2567859	5471.063724110537	0.063724110537
484	2571218	5472.021356067931	0.021356067931
484	2572506	5472.049052083716	0.049052083716
484	2577244	5473.031836097019	0.031836097019
484	2579571	5473.057324126767	0.057324126767
484	2726391	6070.007396019714	0.007396019714
484	2727492	6070.016596048767	0.016596048767
484	2728050	6070.021324047484	0.021324047484
484	2731211	6071.022956046749	0.022956046749
484	2733539	6071.040724083617	0.040724083617
484	2734751	6071.050140110539	0.050140110539
484	2737987	6072.020716067931	0.020716067931
484	2739130	6072.026084083716	0.026084083716
484	2745019	6073.037164126767	0.037164126767
484	2746249	6073.056332097019	0.056332097019
484	2893071	6670.007716019714	0.007716019714
484	2894172	6670.015956048768	0.015956048768
484	2894729	6670.019404047484	0.019404047484
484	2898134	6671.022636046749	0.022636046749
484	2900012	6671.054804083618	0.054804083618
484	2901932	6671.087900110538	0.087900110538
484	2905075	6672.021996083717	0.021996083717
484	2906307	6672.032092067931	0.032092067931
484	2911057	6673.030236097018	0.030236097018
484	2913384	6673.058924126765	0.058924126765
484	3060323	7270.007076019713	0.007076019713
484	3061433	7270.015636047483	0.015636047483
484	3061996	7270.017236048767	0.017236048767
484	3067139	7271.030876083617	0.030876083617
484	3067707	7271.039380046748	0.039380046748
484	3069502	7271.059564110538	0.059564110538
484	3072902	7272.020716083716	0.020716083716
484	3074138	7272.05289206793	0.05289206793
484	3080040	7273.040044126763	0.040044126763
484	3081270	7273.059532097015	0.059532097015
487	945	1.005	1
487	1080	1.01	0
487	1818	1.015781445179	60
487	2988	1.020781445179	80
487	4800	1.025781445179	104
487	7396	1.030781445179	110
487	10405	1.035781445179	109
487	12823	1.040781445179	106
487	15760	1.045781445179	88
487	18945	1.050781445179	156
487	20936	1.055781445179	84
487	22410	1.060781445179	90
487	23677	1.065781445179	73
487	24910	1.070781445179	99
487	26639	1.075781445179	113
487	28762	1.080781445179	145
487	30178	1.085781445179	83
487	31341	1.090781445179	117
487	33330	1.095781445179	92
487	34647	1.100781445179	24
487	35439	1.105781445179	82
487	36597	1.110781445179	81
487	37873	1.115781445179	81
487	39200	1.120781445179	91
487	39722	1.125781445179	30
487	40188	1.130781445179	44
487	41045	1.135781445179	99
487	41538	1.140781445179	48
487	42509	1.145781445179	70
487	42928	1.150781445179	34
487	43741	1.155781445179	90
487	44158	1.160781445179	35
487	44557	1.165781445179	32
487	44952	1.170781445179	30
487	45441	1.175781445179	50
487	45573	1.180781445179	0
487	46054	1.186586268226	47
487	46434	1.191586268226	53
487	46566	1.196586268226	0
487	47059	1.20224911261	50
487	47348	1.20724911261	35
487	47760	1.21224911261	34
487	47761	1.21724911261	0
487	48636	1.248023805831	80
487	49162	1.253023805831	54
487	49812	1.258023805831	54
487	50508	1.263023805831	68
487	50509	1.268023805831	0
487	51006	1.276463036841	51
487	51007	1.281463036841	0
487	61489	43.505	1
487	62152	43.51	18
487	63565	43.515	0
487	64675	43.52	0
487	65770	43.525	0
487	66600	43.53	0
487	67673	43.535	0
487	68099	43.54	0
487	69314	43.545024368614	0
487	69999	43.550024368614	0
487	71109	43.555024368614	0
487	72239	43.560024368614	0
487	73054	43.565024368614	0
487	74007	43.570024368614	0
487	74944	43.575024368614	0
487	75749	43.580024368614	0
487	76837	43.585024368614	0
487	77370	43.590024368614	0
487	78442	43.595110288053	0
487	79522	43.600110288053	0
487	80311	43.605110288053	0
487	81257	43.610110288053	0
487	81929	43.615110288053	0
487	82326	43.62174499073	0
487	82459	43.62674499073	0
487	82998	43.633129007641	0
487	83547	43.638129007641	0
487	83949	43.643129007641	0
487	84371	43.648129007641	0
487	84934	43.653129007641	0
487	85608	43.658129007641	0
487	85609	43.663129007641	0
487	86144	43.674235724491	0
487	86145	43.679235724491	0
487	87216	43.710343782156	0
487	87217	43.715343782156	0
487	87463	44.505	1
487	87473	44.51	0
487	89877	44.517217350174	53
487	92882	44.522217350174	0
487	94579	44.527217350174	0
487	97256	44.535103617677	0
487	98469	44.540103617677	0
487	100201	44.545363365312	0
487	102156	44.550363365312	0
487	104851	44.561184280115	0
487	106313	44.566184280115	0
487	107943	44.571184280115	0
487	109697	44.577106788578	0
487	111407	44.582106788578	0
487	112656	44.587106788578	0
487	122434	44.620720351919	0
487	123849	44.625720351919	0
487	130481	44.647508851276	0
487	131510	44.652508851276	0
487	132680	44.657508851276	0
487	134647	44.662508851276	0
487	137297	44.672912187938	0
487	138851	44.677912187938	0
487	140672	44.682912187938	0
487	141774	44.687912187938	0
487	145445	44.700781808215	0
487	146720	44.705781808215	0
487	148194	44.710781808215	0
487	150075	44.718400278838	0
487	151484	44.723400278838	0
487	152763	44.728400278838	0
487	154038	44.733400278838	0
487	156477	44.743166586914	0
487	158304	44.748166586914	0
487	159969	44.753166586914	0
487	161526	44.758166586914	0
487	164148	44.766666670964	0
487	165806	44.771666670964	0
487	167414	44.776666670964	0
487	169017	44.781666670964	0
487	170597	44.786666670964	0
487	171759	44.791666670964	0
487	173334	44.796666670964	0
487	174524	44.801666670964	0
487	176047	44.806666670964	0
487	177093	44.811666670964	0
487	179079	44.820066817523	0
487	179932	44.825066817523	0
487	182323	44.833353762488	0
487	183463	44.838353762488	0
487	184820	44.843793609967	0
487	186358	44.848793609967	0
487	187717	44.853793609967	0
487	189020	44.858793609967	0
487	190232	44.863793609967	0
487	192500	44.876242796811	0
487	193999	44.881242796811	0
487	196220	44.889145604797	0
487	197247	44.894145604797	0
487	198114	44.899145604797	0
487	199279	44.904145604797	0
487	200586	44.909145604797	0
487	201812	44.914145604797	0
487	203321	44.919145604797	0
487	204526	44.927533741134	0
487	205660	44.932533741134	0
487	207229	44.937533741134	0
487	208199	44.942533741134	0
487	209246	44.947533741134	0
487	210236	44.952533741134	0
487	211534	44.957533741134	0
487	211844	44.962533741134	0
487	213003	44.967533741134	0
487	213745	44.972533741134	0
487	214472	44.977533741134	0
487	215549	44.982533741134	0
487	216238	44.987533741134	0
487	216837	44.992834824938	0
487	217383	44.997834824938	0
487	218633	45.003057881665	0
487	219191	45.008057881665	0
487	219792	45.013480627988	0
487	219793	45.018480627988	0
487	220383	45.028155783106	0
487	220513	45.033155783106	0
487	220970	45.038155783106	0
487	221099	45.043155783106	0
487	221556	45.048542957833	0
487	221557	45.053542957833	0
487	221564	45.505	1
487	221699	45.51	0
487	223296	45.51613967955	22
487	224808	45.52113967955	0
487	225356	45.52613967955	0
487	226465	45.53113967955	0
487	227047	45.53613967955	0
487	228009	45.54113967955	0
487	228957	45.54613967955	0
487	230062	45.551294330013	0
487	230889	45.556294330013	0
487	231850	45.561696795342	0
487	232427	45.566696795342	0
487	233124	45.571696795342	0
487	233844	45.576696795342	0
487	234569	45.581696795342	0
487	235802	45.586696795342	0
487	236489	45.591696795342	0
487	239641	45.609273635764	0
487	240587	45.614273635764	0
487	241951	45.619273635764	0
487	242778	45.624273635764	0
487	243750	45.629273635764	0
487	244156	45.634273635764	0
487	245412	45.642348094184	0
487	245983	45.647348094184	0
487	246665	45.652348094184	0
487	247245	45.657348094184	0
487	248240	45.662348094184	0
487	249077	45.667348094184	0
487	249716	45.672348094184	0
487	250434	45.678329230125	0
487	250993	45.683329230125	0
487	251556	45.688329230125	0
487	252095	45.693329230125	0
487	252927	45.705889663503	0
487	252928	45.710889663503	0
487	254438	45.728002563319	0
487	254969	45.733002563319	0
487	256322	45.73867325926	0
487	256877	45.74367325926	0
487	257813	45.749157628822	0
487	257943	45.754157628822	0
487	258377	45.75954009886	0
487	258942	45.76454009886	0
487	258946	45.76954009886	0
487	259326	46.505	1
487	261039	46.51	33
487	262340	46.515	0
487	263969	46.52	0
487	265500	46.525139033764	0
487	266526	46.530139033764	0
487	267571	46.535139033764	0
487	268915	46.540139033764	0
487	270688	46.545139033764	0
487	272454	46.550139033764	0
487	273409	46.555139033764	0
487	274528	46.561288891484	0
487	276061	46.566288891484	0
487	277336	46.571288891484	0
487	278598	46.576288891484	0
487	279761	46.581288891484	0
487	281153	46.586288891484	0
487	282646	46.591288891484	0
487	284743	46.600210339113	0
487	285727	46.605210339113	0
487	287010	46.611588647216	0
487	288102	46.616588647216	0
487	289401	46.623812495986	0
487	290245	46.628812495986	0
487	298192	46.663468334707	0
487	299456	46.668468334707	0
487	301337	46.677052517931	0
487	302562	46.682052517931	0
487	303660	46.687052517931	0
487	304799	46.692052517931	0
487	306046	46.697052517931	0
487	306749	46.702052517931	0
487	309395	46.715365639462	0
487	310498	46.720365639462	0
487	311737	46.725365639462	0
487	312856	46.730365639462	0
487	313971	46.735365639462	0
487	315013	46.740365639462	0
487	316114	46.745365639462	0
487	317526	46.750461585488	0
487	317963	46.755461585488	0
487	318739	46.760461585488	0
487	319049	46.765461585488	0
487	320709	46.776980294001	0
487	321662	46.781980294001	0
487	321793	46.786980294001	0
487	322386	46.792396928992	0
487	323502	46.797396928992	0
487	324513	46.802396928992	0
487	326131	46.807396928992	0
487	326716	46.812396928992	0
487	327867	46.820567436599	0
487	328570	46.825567436599	0
487	329285	46.830567436599	0
487	329844	46.835567436599	0
487	329849	46.840567436599	0
487	331584	46.85450095239	0
487	331713	46.85950095239	0
487	332286	46.868882524585	0
487	333289	46.873882524585	0
487	333887	46.878882524585	0
487	334474	46.883882524585	0
487	335047	46.888882524585	0
487	335048	46.893882524585	0
487	336719	46.934420326082	0
487	336720	46.939420326082	0
487	336972	47.505	1
487	337438	47.51	30
487	338940	47.515	0
487	340531	47.52	0
487	341850	47.525	0
487	343457	47.53	0
487	344577	47.535	0
487	346377	47.54	0
487	347210	47.545	0
487	348473	47.55	0
487	349714	47.555	0
487	350466	47.56	0
487	352285	47.565	0
487	353511	47.57	0
487	355027	47.575	0
487	356156	47.58	0
487	357139	47.585	0
487	358417	47.59	0
487	360223	47.595	0
487	361588	47.6	0
487	362588	47.605	0
487	366067	47.622857431808	0
487	367187	47.627857431808	0
487	368199	47.632857431808	0
487	369899	47.640838473741	0
487	370461	47.645838473741	0
487	373310	47.659480976429	0
487	374326	47.664480976429	0
487	375274	47.669480976429	0
487	376836	47.682741870304	0
487	377861	47.687741870304	0
487	378815	47.692741870304	0
487	380165	47.697741870304	0
487	381048	47.702741870304	0
487	382316	47.707741870304	0
487	383047	47.712741870304	0
487	384071	47.717789222212	0
487	385277	47.722789222212	0
487	386425	47.727789222212	0
487	387142	47.732789222212	0
487	388023	47.737789222212	0
487	388439	47.742789222212	0
487	389192	47.747789222212	0
487	389616	47.752789222212	0
487	390625	47.758151416448	0
487	391170	47.763151416448	0
487	392016	47.771692430841	0
487	393421	47.776692430841	0
487	393740	47.781692430841	0
487	395630	47.79144259201	0
487	396566	47.79644259201	0
487	398549	47.804305291036	0
487	399240	47.809305291036	0
487	399698	47.815536204647	0
487	400256	47.820536204647	0
487	400393	47.825536204647	0
487	401550	47.830657304543	0
487	402666	47.835657304543	0
487	403824	47.840657304543	0
487	404260	47.845657304543	0
487	404849	47.850657304543	0
487	405397	47.855657304543	0
487	405987	47.870686234664	0
487	406116	47.875686234664	0
487	406567	47.880750724867	0
487	406992	47.885750724867	0
487	407700	47.902230254077	0
487	407701	47.907230254077	0
487	407947	48.505	1
487	407957	48.51	0
487	410369	48.518111581417	29
487	411955	48.523111581417	0
487	413228	48.528111581417	0
487	414247	48.533111581417	0
487	415842	48.538111581417	0
487	417003	48.543111581417	0
487	418029	48.548111581417	0
487	419309	48.553289089934	0
487	420432	48.558289089934	0
487	422482	48.565254947394	0
487	423320	48.570254947394	0
487	425983	48.580933430823	0
487	426967	48.585933430823	0
487	428194	48.590933430823	0
487	429499	48.595933430823	0
487	430384	48.600933430823	0
487	432934	48.612801022879	0
487	433965	48.617801022879	0
487	434940	48.622801022879	0
487	435831	48.627801022879	0
487	439747	48.64526893186	0
487	440844	48.65026893186	0
487	442385	48.65647311412	0
487	443396	48.66147311412	0
487	444594	48.66647311412	0
487	445593	48.67147311412	0
487	447023	48.677348590616	0
487	447879	48.682348590616	0
487	449308	48.689291681177	0
487	450292	48.694291681177	0
487	451328	48.701054587377	0
487	452601	48.706054587377	0
487	453766	48.711054587377	0
487	455065	48.716054587377	0
487	455755	48.721054587377	0
487	456877	48.726054587377	0
487	458016	48.731054587377	0
487	462274	48.757704746491	0
487	463304	48.762704746491	0
487	464034	48.767704746491	0
487	465043	48.772704746491	0
487	465727	48.777704746491	0
487	466730	48.783206570364	0
487	467578	48.788206570364	0
487	468459	48.793206570364	0
487	469192	48.798206570364	0
487	469893	48.803206570364	0
487	470608	48.808206570364	0
487	471475	48.813206570364	0
487	472231	48.818206570364	0
487	472818	48.823206570364	0
487	472819	48.828206570364	0
487	474275	48.836652672859	0
487	475580	48.841652672859	0
487	476344	48.846652672859	0
487	477022	48.851652672859	0
487	478007	48.8582427576	0
487	478582	48.8632427576	0
487	479699	48.891952998501	0
487	479700	48.896952998501	0
487	479970	49.505	1
487	480491	49.51	40
487	482240	49.515	0
487	484136	49.52	0
487	486798	49.525	0
487	488550	49.53	0
487	490241	49.535	0
487	491894	49.54	0
487	493289	49.545	0
487	494669	49.55	0
487	496662	49.555	0
487	498337	49.56	0
487	499929	49.565	0
487	501553	49.57	0
487	503243	49.575	0
487	504420	49.58	0
487	506021	49.585324096179	0
487	506586	49.590324096179	0
487	507759	49.597336746035	0
487	509315	49.602336746035	0
487	511247	49.611289939961	0
487	512809	49.616289939961	0
487	513643	49.621289939961	0
487	514831	49.628050050583	0
487	516154	49.633050050583	0
487	517304	49.638050050583	0
487	518652	49.644030387078	0
487	519759	49.649030387078	0
487	521025	49.654030387078	0
487	522355	49.659030387078	0
487	523600	49.664030387078	0
487	524820	49.670760038479	0
487	525983	49.675760038479	0
487	527124	49.680760038479	0
487	528306	49.685760038479	0
487	529288	49.690760038479	0
487	530259	49.699548118064	0
487	531497	49.704548118064	0
487	532340	49.709548118064	0
487	533382	49.715061592347	0
487	534489	49.720061592347	0
487	535386	49.725061592347	0
487	536475	49.730061592347	0
487	537774	49.735061592347	0
487	539045	49.740061592347	0
487	540456	49.745346141852	0
487	541624	49.750346141852	0
487	541896	49.755346141852	0
487	544630	49.766755483861	0
487	545457	49.771755483861	0
487	549853	49.795043161374	0
487	550673	49.800043161374	0
487	551871	49.806159689362	0
487	552446	49.811159689362	0
487	553737	49.817509617552	0
487	554580	49.822509617552	0
487	555162	49.827509617552	0
487	556541	49.835238220607	0
487	557099	49.840238220607	0
487	557521	49.845238220607	0
487	559710	49.856942413783	0
487	560144	49.861942413783	0
487	560602	49.867918913988	0
487	560603	49.872918913988	0
487	562585	49.88690477234	0
487	562714	49.89190477234	0
487	563181	49.897493251093	0
487	563790	49.902493251093	0
487	564498	49.907493251093	0
487	564976	49.912493251093	0
487	564977	49.917493251093	0
487	566127	49.938664308459	0
487	566256	49.943664308459	0
487	566712	49.94901633651	0
487	566713	49.95401633651	0
487	567317	49.97250432362	0
487	567446	49.97750432362	0
487	567901	49.983253755989	0
487	567902	49.988253755989	0
487	568882	50.034224339598	0
487	569316	50.039224339598	0
487	569510	50.505	1
487	571504	50.51	39
487	573774	50.515	0
487	576262	50.52	0
487	577898	50.525	0
487	579257	50.53	0
487	580844	50.535	0
487	582775	50.54	0
487	584251	50.545	0
487	585789	50.55	0
487	586786	50.555	0
487	588085	50.560709678757	0
487	589664	50.565709678757	0
487	591468	50.570709678757	0
487	593142	50.575949430548	0
487	594496	50.580949430548	0
487	595739	50.585949430548	0
487	597064	50.590949430548	0
487	598205	50.595949430548	0
487	600088	50.604628732304	0
487	601330	50.609628732304	0
487	603471	50.619606380246	0
487	604806	50.624606380246	0
487	605647	50.629606380246	0
487	608944	50.641093361914	0
487	610969	50.646093361914	0
487	612366	50.651093361914	0
487	613499	50.656093361914	0
487	614783	50.661093361914	0
487	616806	50.671257576589	0
487	618040	50.676257576589	0
487	621361	50.695035369471	0
487	622551	50.700035369471	0
487	623407	50.705035369471	0
487	625274	50.71300101903	0
487	626867	50.71800101903	0
487	628106	50.72300101903	0
487	628961	50.72800101903	0
487	629832	50.73300101903	0
487	632461	50.743827354242	0
487	634168	50.748827354242	0
487	635498	50.754825601622	0
487	636521	50.759825601622	0
487	637597	50.764825601622	0
487	638818	50.769825601622	0
487	639959	50.774825601622	0
487	641137	50.779825601622	0
487	642232	50.784825601622	0
487	643965	50.793502972379	0
487	644999	50.798502972379	0
487	646335	50.806822696278	0
487	647562	50.811822696278	0
487	648630	50.816822696278	0
487	649457	50.821822696278	0
487	650154	50.826822696278	0
487	650342	50.831822696278	0
487	651493	50.841050058941	0
487	653167	50.846050058941	0
487	653464	50.851050058941	0
487	654622	50.8579842638	0
487	654624	50.8629842638	0
487	654636	50.868403160314	0
487	655375	50.873403160314	0
487	655949	50.878403160314	0
487	657032	50.883403160314	0
487	657647	50.888403160314	0
487	658386	50.893403160314	0
487	659135	50.898403160314	0
487	659550	50.903403160314	0
487	660002	50.909396060783	0
487	660003	50.914396060783	0
487	660593	50.935253172091	0
487	660594	50.940253172091	0
487	661490	51.505	1
487	662213	51.51	31
487	664580	51.515	0
487	665886	51.52	0
487	667392	51.526449167543	0
487	668550	51.531449167543	0
487	669838	51.536449167543	0
487	671415	51.541449167543	0
487	674484	51.554096880083	0
487	676032	51.559096880083	0
487	677297	51.564096880083	0
487	678429	51.569096880083	0
487	680239	51.574096880083	0
487	681467	51.579096880083	0
487	683217	51.586943179211	0
487	683935	51.591943179211	0
487	686256	51.602657651427	0
487	687697	51.607657651427	0
487	688949	51.612657651427	0
487	690356	51.617657651427	0
487	691618	51.622657651427	0
487	693117	51.63041417936	0
487	694382	51.63541417936	0
487	696271	51.643860784514	0
487	697538	51.648860784514	0
487	698704	51.653860784514	0
487	699157	51.658860784514	0
487	700650	51.663860784514	0
487	701945	51.668860784514	0
487	703103	51.673860784514	0
487	703664	51.678860784514	0
487	704199	51.683860784514	0
487	705730	51.691740494751	0
487	707174	51.696740494751	0
487	708172	51.701740494751	0
487	708886	51.706740494751	0
487	709458	51.711740494751	0
487	710342	51.716740494751	0
487	711786	51.721740494751	0
487	712529	51.726740494751	0
487	714422	51.740091806221	0
487	715282	51.745091806221	0
487	716162	51.750091806221	0
487	717292	51.755091806221	0
487	717725	51.760091806221	0
487	718286	51.765091806221	0
487	719446	51.773335445993	0
487	720014	51.778335445993	0
487	720601	51.783335445993	0
487	720731	51.788335445993	0
487	721870	51.794659141941	0
487	722890	51.799659141941	0
487	723448	51.806610458798	0
487	723449	51.811610458798	0
487	724020	51.828402502619	0
487	724021	51.833402502619	0
487	724633	51.845791841615	0
487	724634	51.850791841615	0
487	725322	51.871242509544	0
487	725885	51.876242509544	0
487	726449	51.881242509544	0
487	726866	51.886242509544	0
487	728004	51.899223119085	0
487	728005	51.904223119085	0
487	728745	52.505	33
487	729970	52.51	0
487	731601	52.515	0
487	734291	52.52	0
487	735871	52.525	0
487	736507	52.53	0
487	737535	52.535	0
487	738726	52.54	0
487	740025	52.545	0
487	741846	52.55	0
487	743007	52.555	0
487	744306	52.56	0
487	745063	52.565	0
487	746433	52.57	0
487	748063	52.575	0
487	750113	52.583681701173	0
487	751320	52.588681701173	0
487	752102	52.593681701173	0
487	752955	52.598681701173	0
487	755575	52.608645441708	0
487	757003	52.613645441708	0
487	757916	52.618645441708	0
487	759968	52.627666497609	0
487	761032	52.632666497609	0
487	762070	52.637666497609	0
487	764155	52.650162038497	0
487	764884	52.655162038497	0
487	765901	52.660162038497	0
487	766637	52.665162038497	0
487	767723	52.670162038497	0
487	768407	52.675162038497	0
487	770275	52.686194036224	0
487	771885	52.691194036224	0
487	773110	52.696194036224	0
487	774637	52.701194036224	0
487	776233	52.706194036224	0
487	777551	52.711194036224	0
487	778483	52.716194036224	0
487	779670	52.721194036224	0
487	781434	52.726194036224	0
487	782326	52.731194036224	0
487	783383	52.736194036224	0
487	783956	52.741194036224	0
487	784085	52.746194036224	0
487	785979	52.754767451389	0
487	786854	52.759767451389	0
487	787457	52.764767451389	0
487	787888	52.769767451389	0
487	788618	52.774767451389	0
487	789257	52.779767451389	0
487	789970	52.784767451389	0
487	790856	52.789767451389	0
487	791179	52.794767451389	0
487	791649	52.800373905919	0
487	791778	52.805373905919	0
487	792843	52.811533466784	0
487	792844	52.816533466784	0
487	793748	53.505	1
487	794279	53.51	31
487	796281	53.515	0
487	797770	53.52	0
487	799210	53.525	0
487	800242	53.53	0
487	801412	53.535	0
487	803944	53.54	0
487	805390	53.545	0
487	806759	53.55	0
487	807758	53.555	0
487	808941	53.56	0
487	809681	53.565	0
487	811452	53.571253966824	0
487	812511	53.576253966824	0
487	814118	53.581253966824	0
487	815879	53.586253966824	0
487	816611	53.591253966824	0
487	818995	53.601324993859	0
487	820022	53.606324993859	0
487	820891	53.611324993859	0
487	821785	53.616324993859	0
487	822544	53.621324993859	0
487	823459	53.626324993859	0
487	824072	53.631324993859	0
487	825427	53.636324993859	0
487	826137	53.641324993859	0
487	827602	53.64733304874	0
487	828788	53.65233304874	0
487	830898	53.661615841603	0
487	831818	53.666615841603	0
487	833296	53.678759857581	0
487	834777	53.683759857581	0
487	836026	53.688759857581	0
487	836457	53.693759857581	0
487	837776	53.698759857581	0
487	838923	53.703759857581	0
487	839846	53.70879390227	0
487	841046	53.71379390227	0
487	842301	53.71879390227	0
487	843398	53.72379390227	0
487	844970	53.732012860484	0
487	846328	53.737012860484	0
487	847029	53.742012860484	0
487	847891	53.747012860484	0
487	848200	53.752012860484	0
487	849662	53.757204674221	0
487	849955	53.762204674221	0
487	851629	53.770646671016	0
487	852043	53.775646671016	0
487	854545	53.789107898587	0
487	855343	53.794107898587	0
487	857247	53.80899069672	0
487	857861	53.81399069672	0
487	858937	53.81899069672	0
487	860057	53.827152935538	0
487	860760	53.832152935538	0
487	861264	53.837152935538	0
487	861265	53.842152935538	0
487	863438	53.855051924807	0
487	864331	53.860051924807	0
487	864833	53.865051924807	0
487	865403	53.870051924807	0
487	865405	53.875051924807	0
487	865993	53.913463864234	0
487	865994	53.918463864234	0
487	866863	54.505	1
487	866998	54.51	0
487	870039	54.516475949394	64
487	872988	54.521475949394	0
487	875193	54.526475949394	0
487	880003	54.538741199965	0
487	881742	54.543741199965	0
487	885157	54.551095182084	0
487	887368	54.556095182084	0
487	889602	54.561095182084	0
487	891243	54.566095182084	0
487	893336	54.57117203346	0
487	895505	54.57617203346	0
487	897269	54.58117203346	0
487	900990	54.592419443423	0
487	902766	54.597419443423	0
487	903840	54.602419443423	0
487	906114	54.607810625851	0
487	907852	54.612810625851	0
487	909126	54.617810625851	0
487	912785	54.628004368326	0
487	914525	54.633004368326	0
487	915966	54.638004368326	0
487	918455	54.645302535159	0
487	920583	54.650302535159	0
487	922220	54.655302535159	0
487	924533	54.660302535159	0
487	929649	54.677185086263	0
487	931131	54.682185086263	0
487	934219	54.68927209762	0
487	935931	54.69427209762	0
487	938288	54.699774901941	0
487	939434	54.704774901941	0
487	941789	54.710599409831	0
487	943401	54.715599409831	0
487	947601	54.729190431927	0
487	948852	54.734190431927	0
487	950703	54.739190431927	0
487	954216	54.747943973975	0
487	955871	54.752943973975	0
487	957582	54.757943973975	0
487	959461	54.762943973975	0
487	961808	54.767943973975	0
487	962963	54.772943973975	0
487	964503	54.778811101273	0
487	966111	54.783811101273	0
487	969078	54.793099653036	0
487	970590	54.798099653036	0