file 53826 1349373566                                           
version 2
run AODVScenario_1g-0-20121004-18:57:01-1772
attr configname AODVScenario_1g
attr datetime 20121004-18:57:01
attr experiment AODVScenario_1g
attr inifile omnetpp.ini
attr iterationvars ""
attr iterationvars2 $repetition=0
attr measurement ""
attr network csma802154net
attr processid 1772
attr repetition 0
attr replication #0
attr resultdir results
attr runnumber 0
attr seedset 0

vector 386  csma802154net.dataCentricNetworkMan  RREQPacketFrequency  ETV
vector 387  csma802154net.dataCentricNetworkMan  DiscoveryPacketFrequency  ETV
vector 388  csma802154net.dataCentricNetworkMan  RegisterPacketFrequency  ETV
vector 389  csma802154net.dataCentricNetworkMan  RReplyPacketFrequency  ETV
vector 390  csma802154net.dataCentricNetworkMan  AODVDataPacketFrequency  ETV
vector 398  csma802154net.fixhost[6].udpApp  "End-to-end delay"  ETV
vector 383  csma802154net.dataCentricNetworkMan  dataPacketE2EDelay  ETV
vector 411  csma802154net.fixhost[19].udpApp  "End-to-end delay"  ETV
vector 412  csma802154net.fixhost[20].udpApp  "End-to-end delay"  ETV
vector 401  csma802154net.fixhost[9].udpApp  "End-to-end delay"  ETV
vector 404  csma802154net.fixhost[12].udpApp  "End-to-end delay"  ETV
vector 409  csma802154net.fixhost[17].udpApp  "End-to-end delay"  ETV
vector 403  csma802154net.fixhost[11].udpApp  "End-to-end delay"  ETV
vector 408  csma802154net.fixhost[16].udpApp  "End-to-end delay"  ETV
vector 402  csma802154net.fixhost[10].udpApp  "End-to-end delay"  ETV
vector 395  csma802154net.fixhost[3].udpApp  "End-to-end delay"  ETV
vector 393  csma802154net.fixhost[1].udpApp  "End-to-end delay"  ETV
383	1651 473 301080 366499 70.042236026899 74.222568986631 11 0.040636014143 1.222568986631 2.091010495831 1.6374916499156
386	2124 10361 11001 419148 40.005 80.221727265265 356 0 248 9562 1512414
387	12485 10217 11001 419148 40.005 80.221727265265 356 0 0 0 0
388	22702 10217 11001 419148 40.005 80.221727265265 356 0 1 12 12
389	32919 10217 11001 419148 40.005 80.221727265265 356 0 1 23 23
390	43136 10217 11001 419148 40.005 80.221727265265 356 0 3 56 70
393	53353 43 366499 366499 74.222568986631 74.222568986631 1 1.222568986631 1.222568986631 1.222568986631 1.4946749270719
395	53396 43 338972 338972 73.040636014143 73.040636014143 1 0.040636014143 0.040636014143 0.040636014143 0.0016512856454301
398	53439 43 301080 301080 70.042236026899 70.042236026899 1 0.042236026899 0.042236026899 0.042236026899 0.0017838819682131
401	53482 43 311085 311085 71.041276033681 71.041276033681 1 0.041276033681 0.041276033681 0.041276033681 0.001703710956435
402	53525 43 336088 336088 72.327540976805 72.327540976805 1 0.327540976805 0.327540976805 0.327540976805 0.10728309148637
403	53568 43 321910 321910 72.043516041556 72.043516041556 1 0.043516041556 0.043516041556 0.043516041556 0.0018936458727035
404	53611 43 311852 311852 71.065204075276 71.065204075276 1 0.065204075276 0.065204075276 0.065204075276 0.0042515714325983
408	53654 43 322688 322688 72.066164077274 72.066164077274 1 0.066164077274 0.066164077274 0.066164077274 0.0043776851215198
409	53697 43 312625 312625 71.088172113011 71.088172113011 1 0.088172113011 0.088172113011 0.088172113011 0.0077743215128246
411	53740 43 301860 301860 70.064884056308 70.064884056308 1 0.064884056308 0.064884056308 0.064884056308 0.0042099407629797
412	53783 43 302640 302640 70.088812094247 70.088812094247 1 0.088812094247 0.088812094247 0.088812094247 0.007887588084538
