version 2
run AODVScenario_1f-51-20121116-00:12:31-2968
attr configname AODVScenario_1f
attr datetime 20121116-00:12:31
attr experiment AODVScenario_1f
attr inifile AODV.ini
attr iterationvars $numNodes=101
attr iterationvars2 "$numNodes=101, $repetition=0"
attr measurement $numNodes=101
attr network csma802154net
attr numNodes 101
attr processid 2968
attr repetition 0
attr replication #0
attr resultdir results
attr runnumber 51
attr seedset 51

vector 415  csma802154net.dataCentricNetworkMan  RREQPacketFrequency  ETV
vector 416  csma802154net.dataCentricNetworkMan  RERRPacketFrequency  ETV
vector 417  csma802154net.dataCentricNetworkMan  DiscoveryPacketFrequency  ETV
vector 418  csma802154net.dataCentricNetworkMan  RegisterPacketFrequency  ETV
vector 419  csma802154net.dataCentricNetworkMan  RReplyPacketFrequency  ETV
vector 420  csma802154net.dataCentricNetworkMan  AODVDataPacketFrequency  ETV
vector 427  csma802154net.dataCentricNetworkMan  pendingRegistrationVector  ETV
vector 426  csma802154net.dataCentricNetworkMan  pendingRREQVector  ETV
vector 424  csma802154net.dataCentricNetworkMan  PendingDataPacketsVector  ETV
vector 432  csma802154net.fixhost[4].udpApp  "End-to-end delay"  ETV
vector 412  csma802154net.dataCentricNetworkMan  dataPacketE2EDelay  ETV
vector 434  csma802154net.fixhost[6].udpApp  "End-to-end delay"  ETV
vector 448  csma802154net.fixhost[20].udpApp  "End-to-end delay"  ETV
vector 438  csma802154net.fixhost[10].udpApp  "End-to-end delay"  ETV
vector 440  csma802154net.fixhost[12].udpApp  "End-to-end delay"  ETV
vector 443  csma802154net.fixhost[15].udpApp  "End-to-end delay"  ETV
vector 435  csma802154net.fixhost[7].udpApp  "End-to-end delay"  ETV
vector 441  csma802154net.fixhost[13].udpApp  "End-to-end delay"  ETV
412	1015783	70.040876090106	0.040876090106
412	1016321	70.046596120815	0.046596120815
412	1018690	71.052756049144	0.052756049144
412	1019945	72.008996013306	0.008996013306
412	1020447	72.013116027002	0.013116027002
412	1020946	72.017556047839	0.017556047839
412	1023727	73.019156049138	0.019156049138
412	1024235	73.024236079396	0.024236079396
412	1150007	670.014676061064	0.014676061064
412	1151071	670.023844090614	0.023844090614
412	1153440	671.018516049143	0.018516049143
412	1154695	672.009636013306	0.009636013306
412	1155197	672.013116027001	0.013116027001
412	1155696	672.016596047838	0.016596047838
412	1158480	673.017876049138	0.017876049138
412	1158985	673.020396079396	0.020396079396
412	1285285	1270.023596090105	0.023596090105
412	1285822	1270.029316120814	0.029316120814
412	1288191	1271.017236049144	0.017236049144
412	1289446	1272.007396013306	0.007396013306
412	1289948	1272.011196027002	0.011196027002
412	1290447	1272.015636047839	0.015636047839
412	1293289	1273.018476079396	0.018476079396
412	1293800	1273.021572049138	0.021572049138
412	1419645	1870.015636061063	0.015636061063
412	1420709	1870.025764090614	0.025764090614
412	1423078	1871.016596049144	0.016596049144
412	1424333	1872.009316013306	0.009316013306
412	1424835	1872.014396027002	0.014396027002
412	1425334	1872.018196047839	0.018196047839
412	1428169	1873.021996079394	0.021996079394
412	1428679	1873.024916049136	0.024916049136
412	1554951	2470.026796090106	0.026796090106
412	1555488	2470.034756120815	0.034756120815
412	1557857	2471.018196049144	0.018196049144
412	1559112	2472.008356013306	0.008356013306
412	1559614	2472.011836027002	0.011836027002
412	1560113	2472.016276047839	0.016276047839
412	1562932	2473.019404049138	0.019404049138
412	1563437	2473.021604079396	0.021604079396
412	1689213	3070.017876061064	0.017876061064
412	1690274	3070.025124090615	0.025124090615
412	1692643	3071.017236049144	0.017236049144
412	1693898	3072.008996013306	0.008996013306
412	1694400	3072.013116027002	0.013116027002
412	1694899	3072.018516047839	0.018516047839
412	1697715	3073.022604049137	0.022604049137
412	1698219	3073.024876079395	0.024876079395
412	1824620	3670.024556090105	0.024556090105
412	1825158	3670.030276120814	0.030276120814
412	1827527	3671.017236049144	0.017236049144
412	1828782	3672.007716013306	0.007716013306
412	1829284	3672.011516027002	0.011516027002
412	1829783	3672.016916047839	0.016916047839
412	1832596	3673.020116049138	0.020116049138
412	1833104	3673.025444079396	0.025444079396
412	1959402	4270.019436090106	0.019436090106
412	1959939	4270.024836120815	0.024836120815
412	1962308	4271.015956049143	0.015956049143
412	1963563	4272.006436013305	0.006436013305
412	1964064	4272.009916027001	0.009916027001
412	1964563	4272.013716047838	0.013716047838
412	1967406	4273.021996079395	0.021996079395
412	1967917	4273.026372049137	0.026372049137
412	2093876	4870.017236061064	0.017236061064
412	2094944	4870.046564090615	0.046564090615
412	2097313	4871.015316049144	0.015316049144
412	2098568	4872.008676013306	0.008676013306
412	2099070	4872.012156027002	0.012156027002
412	2099569	4872.017556047839	0.017556047839
412	2102382	4873.022036049138	0.022036049138
412	2102890	4873.027684079395	0.027684079395
412	2229294	5470.022636090106	0.022636090106
412	2229831	5470.028676120815	0.028676120815
412	2232200	5471.017876049144	0.017876049144
412	2233455	5472.008356013306	0.008356013306
412	2233957	5472.013436027002	0.013436027002
412	2234456	5472.017876047839	0.017876047839
412	2237268	5473.019724049138	0.019724049138
412	2237776	5473.024556079396	0.024556079396
412	2363548	6070.016916061064	0.016916061064
412	2365384	6070.048164090614	0.048164090614
412	2367753	6071.016276049144	0.016276049144
412	2369008	6072.009956013306	0.009956013306
412	2369510	6072.013756027002	0.013756027002
412	2370009	6072.018196047839	0.018196047839
412	2372817	6073.017236049138	0.017236049138
412	2373325	6073.020396079396	0.020396079396
412	2499313	6670.018836061064	0.018836061064
412	2500381	6670.047204090615	0.047204090615
412	2502750	6671.019796049144	0.019796049144
412	2504005	6672.008356013306	0.008356013306
412	2504507	6672.012156027002	0.012156027002
412	2505006	6672.015636047839	0.015636047839
412	2507297	6673.017876049136	0.017876049136
412	2508325	6673.025124079394	0.025124079394
412	2634414	7270.017236061064	0.017236061064
412	2635483	7270.045924090615	0.045924090615
412	2637852	7271.017556049142	0.017556049142
412	2639107	7272.008676013306	0.008676013306
412	2639609	7272.012796027002	0.012796027002
412	2640108	7272.017236047839	0.017236047839
412	2642394	7273.014036049138	0.014036049138
412	2643418	7273.020396079395	0.020396079395
415	801	1.005	1
415	918	1.01	0
415	1844	1.016150292182	99
415	3207	1.021150292182	53
415	5584	1.026150292182	134
415	8187	1.031150292182	93
415	10394	1.036150292182	70
415	12357	1.041150292182	55
415	14341	1.046150292182	65
415	16169	1.051150292182	106
415	17376	1.056150292182	63
415	19026	1.061150292182	74
415	20157	1.066150292182	106
415	21056	1.071150292182	94
415	21902	1.076150292182	58
415	23391	1.081150292182	105
415	24133	1.086150292182	63
415	24754	1.091150292182	60
415	25980	1.096150292182	55
415	26304	1.101150292182	45
415	27034	1.106150292182	63
415	27603	1.111150292182	50
415	27950	1.116150292182	50
415	27951	1.121150292182	0
415	28426	1.130855391001	53
415	28427	1.135855391001	0
415	29439	1.147447882451	77
415	29440	1.152447882451	0
415	29901	1.167551037245	51
415	29902	1.172551037245	0
415	38684	43.505	1
415	38694	43.51	0
415	40439	43.517617032134	37
415	42311	43.522617032134	0
415	44012	43.527617032134	0
415	45312	43.532617032134	0
415	46479	43.537617032134	0
415	47362	43.543704620711	0
415	48970	43.548704620711	0
415	50099	43.553704620711	0
415	51671	43.558704620711	0
415	52528	43.563704620711	0
415	53581	43.56918848436	0
415	54744	43.57418848436	0
415	55856	43.580232613053	0
415	56761	43.585232613053	0
415	58196	43.590232613053	0
415	59155	43.595232613053	0
415	60133	43.600232613053	0
415	63605	43.615616628896	0
415	64474	43.620616628896	0
415	67654	43.638216632258	0
415	68813	43.643216632258	0
415	70092	43.648216632258	0
415	70967	43.653216632258	0
415	71929	43.658216632258	0
415	73507	43.666312165166	0
415	74274	43.671312165166	0
415	78111	43.690240783583	0
415	78966	43.695240783583	0
415	80197	43.701255835161	0
415	81173	43.706255835161	0
415	82275	43.711255835161	0
415	83103	43.716255835161	0
415	84466	43.723316158255	0
415	85436	43.728316158255	0
415	86555	43.733316158255	0
415	87508	43.738316158255	0
415	88684	43.743613493564	0
415	89664	43.748613493564	0
415	90416	43.753613493564	0
415	91427	43.758797957042	0
415	92148	43.763797957042	0
415	92757	43.768797957042	0
415	93951	43.774200997923	0
415	94811	43.779200997923	0
415	95825	43.787847858729	0
415	96407	43.792847858729	0
415	97388	43.798272630544	0
415	98220	43.803272630544	0
415	100595	43.815771609251	0
415	101425	43.820771609251	0
415	102192	43.825771609251	0
415	103084	43.830771609251	0
415	104197	43.835771609251	0
415	105477	43.840771609251	0
415	105992	43.845771609251	0
415	106591	43.850771609251	0
415	107705	43.855771609251	0
415	108523	43.860771609251	0
415	110065	43.866824500662	0
415	110845	43.871824500662	0
415	111441	43.876824500662	0
415	112321	43.881824500662	0
415	112837	43.886824500662	0
415	113440	43.891824500662	0
415	114852	43.901387568644	0
415	115363	43.906387568644	0
415	115476	43.911387568644	0
415	116602	43.918124100471	0
415	117105	43.923124100471	0
415	117106	43.928124100471	0
415	117618	43.950444499583	0
415	117619	43.955444499583	0
415	117945	44.505	1
415	119186	44.51	53
415	121982	44.515	0
415	123330	44.52	0
415	125070	44.525	0
415	126500	44.53	0
415	127541	44.535	0
415	128985	44.54	0
415	130516	44.548210678839	0
415	131743	44.553210678839	0
415	132978	44.558210678839	0
415	134506	44.563210678839	0
415	135676	44.568210678839	0
415	136564	44.573210678839	0
415	138288	44.579622521624	0
415	139734	44.584622521624	0
415	141114	44.589622521624	0
415	142398	44.596711690248	0
415	143732	44.601711690248	0
415	146292	44.612204124421	0
415	147596	44.617204124421	0
415	149200	44.622204124421	0
415	153164	44.640298386845	0
415	154256	44.645298386845	0
415	155959	44.650298386845	0
415	156991	44.655298386845	0
415	158095	44.660298386845	0
415	159368	44.666487217753	0
415	160554	44.671487217753	0
415	165948	44.692642038329	0
415	166962	44.697642038329	0
415	168623	44.702642038329	0
415	169664	44.707642038329	0
415	171482	44.712642038329	0
415	172694	44.717642038329	0
415	174026	44.722642038329	0
415	175161	44.727642038329	0
415	176471	44.732642038329	0
415	177735	44.737642038329	0
415	178998	44.742642038329	0
415	180693	44.747642038329	0
415	181801	44.752642038329	0
415	182927	44.760055491888	0
415	183680	44.765055491888	0
415	184922	44.770055491888	0
415	186034	44.775055491888	0
415	187372	44.780055491888	0
415	188146	44.785055491888	0
415	189283	44.790055491888	0
415	190419	44.795055491888	0
415	191850	44.801527506626	0
415	193211	44.806527506626	0
415	193955	44.811527506626	0
415	196053	44.819811292963	0
415	197058	44.824811292963	0
415	198405	44.829811292963	0
415	199337	44.834811292963	0
415	200666	44.840067927248	0
415	201626	44.845067927248	0
415	202768	44.850067927248	0
415	203743	44.855067927248	0
415	204247	44.860067927248	0
415	205241	44.865067927248	0
415	206114	44.870647546706	0
415	206951	44.875647546706	0
415	208227	44.880647546706	0
415	209097	44.885647546706	0
415	209960	44.890647546706	0
415	211898	44.902002504443	0
415	213130	44.907002504443	0
415	213873	44.912002504443	0
415	215112	44.918141021954	0
415	215589	44.923141021954	0
415	216205	44.929647403652	0
415	216905	44.934647403652	0
415	217273	44.939647403652	0
415	218957	44.948660646419	0
415	219205	44.953660646419	0
415	219950	44.959398317262	0
415	220440	44.964398317262	0
415	221225	44.969398317262	0
415	222357	44.975077676654	0
415	223084	44.980077676654	0
415	223591	44.985077676654	0
415	223592	44.990077676654	0
415	224303	45.00837067353	0
415	224304	45.01337067353	0
415	225040	45.023348353714	0
415	225041	45.028348353714	0
415	225663	45.049228540061	0
415	226068	45.054228540061	0
415	226069	45.059228540061	0
415	226192	45.505	1
415	227574	45.51	56
415	230278	45.515	0
415	232013	45.52	0
415	232947	45.525	0
415	234560	45.53	0
415	235905	45.535	0
415	237926	45.54	0
415	239493	45.545	0
415	240494	45.55	0
415	241676	45.555474683689	0
415	243283	45.560474683689	0
415	244795	45.565474683689	0
415	246157	45.570474683689	0
415	248008	45.575474683689	0
415	252693	45.592418112844	0
415	254016	45.597418112844	0
415	255108	45.602418112844	0
415	255764	45.607418112844	0
415	257009	45.612418112844	0
415	258227	45.617418112844	0
415	259836	45.622418112844	0
415	261418	45.628743764689	0
415	262428	45.633743764689	0
415	263760	45.638743764689	0
415	266402	45.648398021428	0
415	267721	45.653398021428	0
415	269051	45.658398021428	0
415	274047	45.678836632654	0
415	275618	45.683836632654	0
415	277634	45.690828809326	0
415	278418	45.695828809326	0
415	279732	45.701975522461	0
415	281094	45.706975522461	0
415	282420	45.711975522461	0
415	283854	45.716975522461	0
415	285759	45.723755442013	0
415	286667	45.728755442013	0
415	287860	45.734747463588	0
415	289224	45.739747463588	0
415	290447	45.744747463588	0
415	292107	45.749747463588	0
415	293194	45.754747463588	0
415	294419	45.759747463588	0
415	297739	45.773314372329	0
415	298831	45.778314372329	0
415	300200	45.783314372329	0
415	301184	45.788314372329	0
415	302663	45.794806674709	0
415	303872	45.799806674709	0
415	305442	45.807375619508	0
415	307010	45.812375619508	0
415	308191	45.817375619508	0
415	309889	45.823683105604	0
415	311423	45.828683105604	0
415	312535	45.833683105604	0
415	313885	45.838683105604	0
415	314976	45.843683105604	0
415	315930	45.848683105604	0
415	316933	45.853683105604	0
415	317781	45.858683105604	0
415	319117	45.863683105604	0
415	320103	45.868683105604	0
415	320827	45.873683105604	0
415	321318	45.878683105604	0
415	322280	45.886448152318	0
415	323843	45.891448152318	0
415	324838	45.896448152318	0
415	325364	45.901448152318	0
415	326564	45.906485237113	0
415	327235	45.911485237113	0
415	327773	45.916485237113	0
415	328907	45.921485237113	0
415	329925	45.926485237113	0
415	331842	45.93830758935	0
415	332880	45.94330758935	0
415	333246	45.94830758935	0
415	334260	45.95330758935	0
415	335065	45.95830758935	0
415	335964	45.964114659555	0
415	336600	45.969114659555	0
415	337476	45.974114659555	0
415	338221	45.979114659555	0
415	338757	45.984350288752	0
415	338761	45.989350288752	0
415	339791	45.996691929043	0
415	340106	46.001691929043	0
415	340527	46.007699186917	0
415	341046	46.012699186917	0
415	341047	46.017699186917	0
415	341551	46.044318181467	0
415	341552	46.049318181467	0
415	342668	46.076917995749	0
415	343064	46.081917995749	0
415	343065	46.086917995749	0
415	343072	46.505	1
415	343082	46.51	0
415	345411	46.517602458407	52
415	347255	46.522602458407	0
415	348959	46.527602458407	0
415	350224	46.532602458407	0
415	351810	46.537602458407	0
415	353369	46.542602458407	0
415	354494	46.547602458407	0
415	355388	46.552602458407	0
415	356892	46.557602458407	0
415	358317	46.562602458407	0
415	359396	46.567602458407	0
415	361124	46.573871030528	0
415	362586	46.578871030528	0
415	363792	46.583871030528	0
415	365036	46.590422015112	0
415	366465	46.595422015112	0
415	367468	46.600422015112	0
415	368251	46.605422015112	0
415	369085	46.610422015112	0
415	370337	46.617182504766	0
415	372287	46.622182504766	0
415	373628	46.627182504766	0
415	374623	46.632182504766	0
415	376116	46.637182504766	0
415	377439	46.642182504766	0
415	379536	46.652043950425	0
415	380502	46.657043950425	0
415	383704	46.674420366637	0
415	384571	46.679420366637	0
415	386345	46.684726525399	0
415	387531	46.689726525399	0
415	388923	46.698229670454	0
415	389778	46.703229670454	0
415	391543	46.710318335535	0
415	393010	46.715318335535	0
415	393985	46.720318335535	0
415	397331	46.737760642891	0
415	398112	46.742760642891	0
415	399374	46.747760642891	0
415	400348	46.752760642891	0
415	401469	46.757760642891	0
415	402574	46.762760642891	0
415	403682	46.767760642891	0
415	404810	46.772760642891	0
415	406304	46.779260197879	0
415	407185	46.784260197879	0
415	409294	46.794794657359	0
415	410631	46.799794657359	0
415	411643	46.804794657359	0
415	413632	46.813717504347	0
415	415012	46.818717504347	0
415	416090	46.823717504347	0
415	417321	46.829703575756	0
415	417930	46.834703575756	0
415	419175	46.839714058167	0
415	420311	46.844714058167	0
415	421433	46.849714058167	0
415	422216	46.854714058167	0
415	423296	46.859714058167	0
415	424815	46.867399576448	0
415	425811	46.872399576448	0
415	427090	46.877399576448	0
415	427727	46.882399576448	0
415	428783	46.887399576448	0
415	429277	46.892399576448	0
415	430506	46.898322593566	0
415	431518	46.903322593566	0
415	432388	46.908322593566	0
415	433592	46.913322593566	0
415	434380	46.918322593566	0
415	435244	46.923322593566	0
415	436441	46.934640668688	0
415	437025	46.939640668688	0
415	437805	46.945907022691	0
415	438454	46.950907022691	0
415	439562	46.957783270107	0
415	440216	46.962783270107	0
415	441961	46.974267975045	0
415	442466	46.979267975045	0
415	442989	46.984267975045	0
415	443501	46.989267975045	0
415	443613	46.994267975045	0
415	444215	47.00063005478	0
415	444216	47.00563005478	0
415	444739	47.018310714886	0
415	444740	47.023310714886	0
415	444756	47.505	1
415	446134	47.51	51
415	449342	47.515	0
415	451122	47.52	0
415	453054	47.525	0
415	454029	47.53	0
415	455622	47.538465262663	0
415	457359	47.543465262663	0
415	458663	47.548465262663	0
415	459596	47.553465262663	0
415	461085	47.558465262663	0
415	462377	47.563465262663	0
415	463295	47.568465262663	0
415	465090	47.575554579674	0
415	466673	47.580554579674	0
415	468386	47.586381435273	0
415	469696	47.591381435273	0
415	474580	47.607579072961	0
415	475615	47.612579072961	0
415	476917	47.617579072961	0
415	478197	47.622579072961	0
415	480319	47.631615847135	0
415	481546	47.636615847135	0
415	482633	47.641615847135	0
415	486950	47.656430433625	0
415	488370	47.661430433625	0
415	489538	47.666430433625	0
415	490619	47.671430433625	0
415	491875	47.676430433625	0
415	497145	47.695336675991	0
415	498283	47.700336675991	0
415	499546	47.705336675991	0
415	500774	47.710336675991	0
415	501625	47.715336675991	0
415	502970	47.720336675991	0
415	504681	47.725336675991	0
415	506167	47.730336675991	0
415	507740	47.735336675991	0
415	508778	47.740336675991	0
415	509990	47.745336675991	0
415	512899	47.756207042082	0
415	513890	47.761207042082	0
415	514869	47.766207042082	0
415	516971	47.775580217107	0
415	518111	47.780580217107	0
415	519430	47.785580217107	0
415	520551	47.792152589629	0
415	521558	47.797152589629	0
415	522447	47.802152589629	0
415	523786	47.807152589629	0
415	524531	47.812152589629	0
415	530209	47.83829651489	0
415	531159	47.84329651489	0
415	531873	47.848948721571	0
415	532939	47.853948721571	0
415	534027	47.858948721571	0
415	535625	47.865632585105	0
415	536859	47.870632585105	0
415	537779	47.875632585105	0
415	539278	47.880632585105	0
415	539915	47.885632585105	0
415	540829	47.891935063332	0
415	541949	47.896935063332	0
415	542858	47.901935063332	0
415	543089	47.906935063332	0
415	544464	47.912202575084	0
415	544960	47.917202575084	0
415	545598	47.922202575084	0
415	546960	47.927202575084	0
415	547620	47.932202575084	0
415	548990	47.937202575084	0
415	550041	47.942202575084	0
415	550543	47.947202575084	0
415	551570	47.952486488537	0
415	552252	47.957486488537	0
415	553159	47.962486488537	0
415	553497	47.967486488537	0
415	553769	47.972486488537	0
415	554805	47.984391881587	0
415	554924	47.989391881587	0
415	556297	47.996552522157	0
415	556764	48.001552522157	0
415	557635	48.023705337454	0
415	558703	48.028705337454	0
415	559109	48.033705337454	0
415	559110	48.038705337454	0
415	560159	48.505	1
415	560166	48.51	0
415	561660	48.519215692153	29
415	562829	48.524215692153	0
415	564111	48.529215692153	0
415	565750	48.534215692153	0
415	566955	48.539215692153	0
415	568161	48.544215692153	0
415	568916	48.549215692153	0
415	570022	48.554215692153	0
415	570761	48.559215692153	0
415	572682	48.567273184273	0
415	573406	48.572273184273	0
415	575299	48.582166046738	0
415	576009	48.587166046738	0
415	577816	48.595285243529	0
415	578448	48.600285243529	0
415	579310	48.605285243529	0
415	580388	48.610285243529	0
415	581370	48.615285243529	0
415	582579	48.620285243529	0
415	583601	48.625285243529	0
415	584307	48.630285243529	0
415	590787	48.671326066696	0
415	591165	48.676326066696	0
415	592064	48.681326066696	0
415	595114	48.698475823357	0
415	595834	48.703475823357	0
415	596999	48.708475823357	0
415	597891	48.713475823357	0
415	598776	48.718475823357	0
415	599280	48.723475823357	0
415	600280	48.728475823357	0
415	601048	48.733475823357	0
415	601933	48.738475823357	0
415	602805	48.743475823357	0
415	603898	48.748475823357	0
415	605243	48.753475823357	0
415	606157	48.758475823357	0
415	606269	48.763475823357	0
415	607189	48.769190071934	0
415	607908	48.774190071934	0
415	608927	48.779190071934	0
415	609642	48.784190071934	0
415	610385	48.789190071934	0
415	611375	48.796332726225	0
415	611893	48.801332726225	0
415	612502	48.806332726225	0
415	614452	48.829458865477	0
415	615425	48.834458865477	0
415	615539	48.839458865477	0
415	616565	48.849103602643	0
415	617320	48.854103602643	0
415	618215	48.859103602643	0
415	618715	48.864103602643	0
415	618716	48.869103602643	0
415	619802	48.881192493851	0
415	620175	48.886192493851	0
415	620176	48.891192493851	0
415	620429	49.505	1
415	620816	49.51	33
415	622373	49.515	0
415	623713	49.52	0
415	626483	49.530616288588	0
415	627317	49.535616288588	0
415	628575	49.540616288588	0
415	629462	49.545616288588	0
415	630449	49.550616288588	0
415	631545	49.555616288588	0
415	632850	49.560616288588	0
415	633873	49.565616288588	0
415	634982	49.570616288588	0
415	636039	49.575616288588	0
415	636908	49.580616288588	0
415	638081	49.585616288588	0
415	639054	49.590616288588	0
415	639905	49.595616288588	0
415	640932	49.600616288588	0
415	642420	49.605616288588	0
415	643303	49.610616288588	0
415	644006	49.615616288588	0
415	646014	49.627170821691	0
415	646856	49.632170821691	0
415	647820	49.637170821691	0
415	649735	49.648017874583	0
415	650696	49.653017874583	0
415	651576	49.658017874583	0
415	652435	49.663017874583	0
415	653622	49.668017874583	0
415	654619	49.673017874583	0
415	655704	49.678017874583	0
415	656197	49.683017874583	0
415	656690	49.688017874583	0
415	657639	49.693017874583	0
415	658482	49.698017874583	0
415	659376	49.703017874583	0
415	660438	49.715919845638	0
415	661425	49.720919845638	0
415	662408	49.725919845638	0
415	663013	49.730919845638	0
415	663760	49.735919845638	0
415	664602	49.744143679626	0
415	665491	49.749143679626	0
415	665977	49.754143679626	0
415	666709	49.759143679626	0
415	667827	49.767914787706	0
415	668585	49.772914787706	0
415	669216	49.777914787706	0
415	669944	49.782914787706	0
415	671068	49.792792254652	0
415	671791	49.797792254652	0
415	672267	49.802792254652	0
415	672888	49.807792254652	0
415	673133	49.812792254652	0
415	674001	49.825074310439	0
415	674610	49.830074310439	0
415	674614	49.835074310439	0
415	675834	49.842672031002	0
415	675946	49.847672031002	0
415	676585	49.858938334783	0
415	676588	49.863938334783	0
415	677692	49.872448034897	0
415	677804	49.877448034897	0
415	678298	49.889150504018	0
415	678303	49.894150504018	0
415	679813	49.907310050914	0
415	679814	49.912310050914	0
415	680077	50.505	1
415	680194	50.51	0
415	681735	50.51530378572	31
415	682909	50.52030378572	0
415	684543	50.526094543959	0
415	685610	50.531094543959	0
415	686386	50.536094543959	0
415	688086	50.543006173495	0
415	689170	50.548006173495	0
415	690090	50.553006173495	0
415	690725	50.558006173495	0
415	691816	50.563006173495	0
415	693403	50.570579573623	0
415	694502	50.575579573623	0
415	695108	50.580579573623	0
415	698003	50.597986570347	0
415	698918	50.602986570347	0
415	699637	50.607986570347	0
415	700779	50.613066301506	0
415	701790	50.618066301506	0
415	702634	50.623066301506	0
415	703506	50.628066301506	0
415	704728	50.634397842924	0
415	705429	50.639397842924	0
415	706403	50.644397842924	0
415	706986	50.649397842924	0
415	707905	50.654397842924	0
415	708864	50.659397842924	0
415	710024	50.666883592552	0
415	711004	50.671883592552	0
415	712101	50.676883592552	0
415	713121	50.682778317349	0
415	714157	50.687778317349	0
415	715224	50.692778317349	0
415	715455	50.697778317349	0
415	717067	50.7105764555	0
415	717896	50.7155764555	0
415	719144	50.721888474017	0
415	719783	50.726888474017	0
415	721002	50.736958142818	0
415	722125	50.741958142818	0
415	722754	50.746958142818	0
415	723132	50.751958142818	0
415	723611	50.756958142818	0
415	724934	50.777088980184	0
415	725836	50.782088980184	0
415	726357	50.787088980184	0
415	727201	50.792088980184	0
415	728107	50.797088980184	0
415	728596	50.802088980184	0
415	728952	50.807088980184	0
415	729574	50.814499638433	0
415	729575	50.819499638433	0
415	730081	50.829426588739	0
415	731028	50.834426588739	0
415	731029	50.839426588739	0
415	731539	50.849463747978	0
415	731540	50.854463747978	0
415	732510	50.887845524152	0
415	732511	50.892845524152	0
415	732777	51.505	1
415	732787	51.51	0
415	734700	51.517481633956	37
415	736666	51.522481633956	0
415	738084	51.527481633956	0
415	739310	51.532491417883	0
415	740099	51.537491417883	0
415	741448	51.542491417883	0
415	742804	51.547491417883	0
415	743848	51.552491417883	0
415	744952	51.557491417883	0
415	747525	51.571116663218	0
415	748700	51.576116663218	0
415	749707	51.581116663218	0
415	751067	51.586116663218	0
415	752118	51.591116663218	0
415	753136	51.596116663218	0
415	754119	51.601116663218	0
415	755739	51.607217447013	0
415	756644	51.612217447013	0
415	757851	51.617217447013	0
415	759092	51.622217447013	0
415	759355	51.627217447013	0
415	761872	51.640564716723	0
415	762995	51.645564716723	0
415	764234	51.651837693681	0
415	765442	51.656837693681	0
415	766451	51.661837693681	0
415	767191	51.666837693681	0
415	768074	51.671837693681	0
415	768834	51.676837693681	0
415	769707	51.681837693681	0
415	772093	51.693888833036	0
415	773164	51.698888833036	0
415	774027	51.703888833036	0
415	775262	51.708888833036	0
415	776009	51.713888833036	0
415	780323	51.739184632733	0
415	780439	51.744184632733	0
415	781787	51.750217351669	0
415	782906	51.755217351669	0
415	783781	51.760217351669	0
415	784556	51.765217351669	0
415	785535	51.770217351669	0
415	786425	51.775217351669	0
415	787686	51.780725232897	0
415	788697	51.785725232897	0
415	789670	51.790725232897	0
415	790628	51.798338703882	0
415	791638	51.803338703882	0
415	792676	51.808338703882	0
415	793440	51.813338703882	0
415	794582	51.818338703882	0
415	795645	51.823338703882	0
415	797126	51.831037170388	0
415	798494	51.836037170388	0
415	798499	51.841037170388	0
415	799005	51.848642889016	0
415	799118	51.853642889016	0
415	800003	51.858642889016	0
415	800114	51.863642889016	0
415	800483	51.869757535521	0
415	801094	51.874757535521	0
415	801713	51.883700516094	0
415	801714	51.888700516094	0
415	802321	51.899564537394	0
415	802837	51.904564537394	0
415	803234	51.909564537394	0
415	803235	51.914564537394	0
415	805271	51.950567185195	0
415	805272	51.955567185195	0
415	805543	52.505	1
415	805883	52.51	11
415	807160	52.515	0
415	808357	52.52	0
415	809217	52.525	0
415	809919	52.53	0
415	810058	52.535	0
415	810529	52.54	0
415	811376	52.545	0
415	812342	52.55	0
415	813033	52.555	0
415	813539	52.56	0
415	814161	52.565	0
415	815740	52.578543199032	0
415	816220	52.583543199032	0
415	816732	52.588543199032	0
415	817611	52.596897492273	0
415	817949	52.601897492273	0
415	820529	52.631939460419	0
415	821026	52.636939460419	0
415	822458	52.661368688838	0
415	822940	52.666368688838	0
415	823700	52.671991134001	0
415	824163	52.676991134001	0
415	825579	52.688513292495	0
415	826068	52.693513292495	0
415	827134	52.698513292495	0
415	827603	52.703513292495	0
415	829256	52.720823163141	0
415	829509	52.725823163141	0
415	830021	52.74743170355	0
415	830022	52.75243170355	0
415	830490	52.819497412248	0
415	830491	52.824497412248	0
415	830868	53.505	1
415	832717	53.51	38
415	834402	53.515	0
415	835778	53.52	0
415	836888	53.525	0
415	837666	53.53	0
415	838592	53.535	0
415	839363	53.54	0
415	842469	53.551850331653	0
415	843327	53.556850331653	0
415	848709	53.584194602423	0
415	849822	53.589194602423	0
415	851410	53.597000412148	0
415	852544	53.602000412148	0
415	854273	53.609154456616	0
415	855266	53.614154456616	0
415	857570	53.62311294024	0
415	858863	53.62811294024	0
415	860612	53.637914461157	0
415	861749	53.642914461157	0
415	862971	53.647914461157	0
415	863852	53.652914461157	0
415	865095	53.659167284004	0
415	866117	53.664167284004	0
415	870280	53.683603090956	0
415	871150	53.688603090956	0
415	873067	53.696976764495	0
415	874316	53.701976764495	0
415	875393	53.706976764495	0
415	876788	53.713933543465	0
415	878041	53.718933543465	0
415	879088	53.723933543465	0
415	880000	53.728933543465	0
415	881363	53.733933543465	0
415	882118	53.738933543465	0
415	883134	53.743933543465	0
415	883895	53.749045021661	0
415	884639	53.754045021661	0
415	885890	53.759045021661	0
415	887025	53.764045021661	0
415	888156	53.770199050637	0
415	889313	53.775199050637	0
415	889707	53.780199050637	0
415	891444	53.787924210074	0
415	892703	53.792924210074	0
415	894294	53.797924210074	0
415	895424	53.802924210074	0
415	895947	53.807924210074	0
415	897697	53.817488077947	0
415	898565	53.822488077947	0
415	900604	53.832719011432	0
415	901218	53.837719011432	0
415	902500	53.843832641075	0
415	903507	53.848832641075	0
415	904279	53.853832641075	0
415	907486	53.873928666546	0
415	908250	53.878928666546	0
415	909125	53.883928666546	0
415	909756	53.888928666546	0
415	910962	53.893928666546	0
415	911706	53.898928666546	0
415	912644	53.903928666546	0
415	913546	53.908928666546	0
415	913669	53.913928666546	0
415	914180	53.918928666546	0
415	914291	53.923928666546	0
415	915181	53.930314092582	0
415	915787	53.935314092582	0
415	916464	53.940314092582	0
415	917001	53.945314092582	0
415	917005	53.950314092582	0
415	917496	53.957411789817	0
415	917997	53.962411789817	0
415	917998	53.967411789817	0
415	918520	53.983402837812	0
415	918521	53.988402837812	0
415	918769	54.505	1
415	919668	54.51	42
415	922162	54.515	0
415	923677	54.52	0