version 2
run AODVScenario_1f-46-20121116-00:09:45-2324
attr configname AODVScenario_1f
attr datetime 20121116-00:09:45
attr experiment AODVScenario_1f
attr inifile AODV.ini
attr iterationvars $numNodes=96
attr iterationvars2 "$numNodes=96, $repetition=0"
attr measurement $numNodes=96
attr network csma802154net
attr numNodes 96
attr processid 2324
attr repetition 0
attr replication #0
attr resultdir results
attr runnumber 46
attr seedset 46

vector 395  csma802154net.dataCentricNetworkMan  RREQPacketFrequency  ETV
vector 396  csma802154net.dataCentricNetworkMan  RERRPacketFrequency  ETV
vector 397  csma802154net.dataCentricNetworkMan  DiscoveryPacketFrequency  ETV
vector 398  csma802154net.dataCentricNetworkMan  RegisterPacketFrequency  ETV
vector 399  csma802154net.dataCentricNetworkMan  RReplyPacketFrequency  ETV
vector 400  csma802154net.dataCentricNetworkMan  AODVDataPacketFrequency  ETV
vector 407  csma802154net.dataCentricNetworkMan  pendingRegistrationVector  ETV
vector 406  csma802154net.dataCentricNetworkMan  pendingRREQVector  ETV
vector 404  csma802154net.dataCentricNetworkMan  PendingDataPacketsVector  ETV
vector 410  csma802154net.fixhost[2].udpApp  "End-to-end delay"  ETV
vector 392  csma802154net.dataCentricNetworkMan  dataPacketE2EDelay  ETV
vector 413  csma802154net.fixhost[5].udpApp  "End-to-end delay"  ETV
vector 428  csma802154net.fixhost[20].udpApp  "End-to-end delay"  ETV
vector 417  csma802154net.fixhost[9].udpApp  "End-to-end delay"  ETV
vector 422  csma802154net.fixhost[14].udpApp  "End-to-end delay"  ETV
vector 423  csma802154net.fixhost[15].udpApp  "End-to-end delay"  ETV
vector 415  csma802154net.fixhost[7].udpApp  "End-to-end delay"  ETV
vector 412  csma802154net.fixhost[4].udpApp  "End-to-end delay"  ETV
vector 420  csma802154net.fixhost[12].udpApp  "End-to-end delay"  ETV
vector 429  csma802154net.fixhost[21].udpApp  "End-to-end delay"  ETV
vector 436  csma802154net.fixhost[28].udpApp  "End-to-end delay"  ETV
392	765219	70.042756084245	0.042756084245
392	766446	70.058892114017	0.058892114017
392	767933	70.073004144615	0.073004144615
392	770028	71.018196052501	0.018196052501
392	770976	71.025124092798	0.025124092798
392	771915	71.031804116608	0.031804116608
392	774448	72.06743608047	0.06743608047
392	774933	72.07725205011	0.07725205011
392	776572	73.014396035916	0.014396035916
392	777031	73.017524054287	0.017524054287
392	777498	73.022284076599	0.022284076599
392	899380	670.042676140676	0.042676140676
392	899869	670.04577211402	0.04577211402
392	900876	670.061372171026	0.061372171026
392	902971	671.0172360525	0.0172360525
392	903920	671.027684092797	0.027684092797
392	904856	671.035004116607	0.035004116607
392	907381	672.02039608047	0.02039608047
392	907865	672.02555605011	0.02555605011
392	909470	673.012156054287	0.012156054287
392	909969	673.014396035916	0.014396035916
392	910425	673.016596076598	0.016596076598
392	1031000	1270.032836084248	0.032836084248
392	1032803	1270.044172114019	0.044172114019
392	1033810	1270.05149214462	0.05149214462
392	1035905	1271.017236052501	0.017236052501
392	1036854	1271.025124092798	0.025124092798
392	1038490	1271.055980116608	0.055980116608
392	1041221	1272.01847608047	0.01847608047
392	1042157	1272.04333205011	0.04333205011
392	1043763	1273.015356054287	0.015356054287
392	1044259	1273.017916035916	0.017916035916
392	1044718	1273.020756076599	0.020756076599
392	1165484	1870.025156084248	0.025156084248
392	1167133	1870.05384411402	0.05384411402
392	1168613	1870.08854014462	0.08854014462
392	1170708	1871.017556052501	0.017556052501
392	1171657	1871.025444092798	0.025444092798
392	1172595	1871.031804116608	0.031804116608
392	1175125	1872.01947605011	0.01947605011
392	1175604	1872.023204080469	0.023204080469
392	1177245	1873.012476035915	0.012476035915
392	1177913	1873.038004054287	0.038004054287
392	1178379	1873.042124076599	0.042124076599
392	1299741	2470.028676084247	0.028676084247
392	1300227	2470.032156114019	0.032156114019
392	1302153	2470.062124144619	0.062124144619
392	1305176	2471.030276115297	0.030276115297
392	1305662	2471.039516139444	0.039516139444
392	1306144	2471.044596164901	0.044596164901
392	1308223	2472.01691605011	0.01691605011
392	1309153	2472.02416408047	0.02416408047
392	1310798	2473.011516035916	0.011516035916
392	1311253	2473.014004054286	0.014004054286
392	1311721	2473.021644076598	0.021644076598
392	1432189	3070.022916084248	0.022916084248
392	1433836	3070.03496411402	0.03496411402
392	1435315	3070.06870014462	0.06870014462
392	1438330	3071.026436115297	0.026436115297
392	1438816	3071.033436139444	0.033436139444
392	1439298	3071.038516164902	0.038516164902
392	1441830	3072.02135608047	0.02135608047
392	1442315	3072.027332050109	0.027332050109
392	1443954	3073.011516035915	0.011516035915
392	1444413	3073.015924054286	0.015924054286
392	1444880	3073.020044076597	0.020044076597
392	1565646	3670.028036084247	0.028036084247
392	1567290	3670.054484114019	0.054484114019
392	1569960	3670.111828144617	0.111828144617
392	1572254	3671.0165960525	0.0165960525
392	1573410	3671.045924092798	0.045924092798
392	1574356	3671.074932116608	0.074932116608
392	1576887	3672.02235605011	0.02235605011
392	1577366	3672.02768408047	0.02768408047
392	1578975	3673.012476054287	0.012476054287
392	1579445	3673.016916076599	0.016916076599
392	1580152	3673.044652035915	0.044652035915
392	1701549	4270.030556114019	0.030556114019
392	1702044	4270.032444084247	0.032444084247
392	1703954	4270.059884144617	0.059884144617
392	1706711	4271.021676083898	0.021676083898
392	1707200	4271.025476108045	0.025476108045
392	1708143	4271.049404116608	0.049404116608
392	1710222	4272.015636050109	0.015636050109
392	1711153	4272.029604080468	0.029604080468
392	1712795	4273.014396035916	0.014396035916
392	1713254	4273.018484054286	0.018484054286
392	1713721	4273.023244076598	0.023244076598
392	1835597	4870.030836140678	0.030836140678
392	1836086	4870.03496411402	0.03496411402
392	1837093	4870.042172171028	0.042172171028
392	1840111	4871.029316115297	0.029316115297
392	1840598	4871.035676139444	0.035676139444
392	1841079	4871.039476164902	0.039476164902
392	1843357	4872.01883605011	0.01883605011
392	1844293	4872.048484080469	0.048484080469
392	1845902	4873.012476054287	0.012476054287
392	1846373	4873.017876076599	0.017876076599
392	1846862	4873.022572035916	0.022572035916
392	1967632	5470.031556084248	0.031556084248
392	1969281	5470.059924114019	0.059924114019
392	1970760	5470.092700144618	0.092700144618
392	1973318	5471.019116083899	0.019116083899
392	1973812	5471.025476108046	0.025476108046
392	1974750	5471.032052116608	0.032052116608
392	1976828	5472.023636050109	0.023636050109
392	1977966	5472.053604080469	0.053604080469
392	1979578	5473.013756054286	0.013756054286
392	1980075	5473.015924035915	0.015924035915
392	1980533	5473.018836076598	0.018836076598
392	2101672	6070.025404084248	0.025404084248
392	2102652	6070.03368411402	0.03368411402
392	2104640	6070.05981214462	0.05981214462
392	2106936	6071.0156360525	0.0156360525
392	2108350	6071.050364124195	0.050364124195
392	2108833	6071.058324149653	0.058324149653
392	2111366	6072.02007608047	0.02007608047
392	2111850	6072.02893205011	0.02893205011
392	2113456	6073.012796054286	0.012796054286
392	2113926	6073.017876076598	0.017876076598
392	2114412	6073.020084035916	0.020084035916
392	2235438	6670.029636084247	0.029636084247
392	2237775	6670.057364114597	0.057364114597
392	2238265	6670.059924114019	0.059924114019
392	2240831	6671.017556052499	0.017556052499
392	2242241	6671.032124124194	0.032124124194
392	2242723	6671.038164149652	0.038164149652
392	2245251	6672.021036080467	0.021036080467
392	2245735	6672.024524050109	0.024524050109
392	2247344	6673.011516054287	0.011516054287
392	2247815	6673.016276076599	0.016276076599
392	2248306	6673.028900035915	0.028900035915
392	2370032	7270.03240411402	0.03240411402
392	2370514	7270.034116084247	0.034116084247
392	2372479	7270.06365214462	0.06365214462
392	2374775	7271.0165960525	0.0165960525
392	2376189	7271.050364124195	0.050364124195
392	2376671	7271.055124149653	0.055124149653
392	2379206	7272.02164405011	0.02164405011
392	2379685	7272.027044080469	0.027044080469
392	2381293	7273.011196054287	0.011196054287
392	2382203	7273.036404035916	0.036404035916
392	2383128	7273.065732076599	0.065732076599
395	761	1.005	1
395	771	1.01	0
395	1130	1.017784729933	16
395	2090	1.022784729933	81
395	3762	1.027784729933	123
395	6081	1.032784729933	129
395	8682	1.037784729933	52
395	10885	1.042784729933	83
395	13061	1.047784729933	87
395	14829	1.052784729933	60
395	16270	1.057784729933	61
395	17672	1.062784729933	80
395	18788	1.067784729933	81
395	19829	1.072784729933	68
395	20994	1.077784729933	91
395	21793	1.082784729933	62
395	22200	1.087784729933	39
395	22622	1.092784729933	24
395	23195	1.097784729933	62
395	23811	1.102784729933	58
395	24804	1.107784729933	90
395	25785	1.112784729933	48
395	26674	1.117784729933	54
395	27783	1.122784729933	82
395	28575	1.127784729933	58
395	28924	1.132784729933	30
395	29793	1.137784729933	74
395	30753	1.142784729933	94
395	31064	1.147784729933	44
395	31068	1.152784729933	0
395	31431	1.160244706281	34
395	31877	1.165244706281	50
395	31878	1.170244706281	0
395	40234	43.505	1
395	40577	43.51	17
395	42196	43.515	0
395	43332	43.52	0
395	44203	43.525	0
395	45080	43.53	0
395	45704	43.535	0
395	47082	43.54	0
395	47751	43.545	0
395	50815	43.56298617682	0
395	51701	43.56798617682	0
395	52694	43.57298617682	0
395	53466	43.57798617682	0
395	54364	43.58298617682	0
395	54601	43.58798617682	0
395	55626	43.593786507824	0
395	56838	43.598786507824	0
395	58058	43.603786507824	0
395	58606	43.608786507824	0
395	59408	43.615244423526	0
395	60100	43.620244423526	0
395	61232	43.625962513993	0
395	62193	43.630962513993	0
395	62545	43.635962513993	0
395	63216	43.640962513993	0
395	63222	43.645962513993	0
395	65595	43.666619668253	0
395	66514	43.671619668253	0
395	67607	43.676619668253	0
395	68416	43.683079977183	0
395	68748	43.688079977183	0
395	69323	43.693079977183	0
395	69880	43.698079977183	0
395	70751	43.703079977183	0
395	71222	43.709336426333	0
395	71678	43.714336426333	0
395	72119	43.719336426333	0
395	72668	43.724336426333	0
395	73209	43.732494619095	0
395	73550	43.737494619095	0
395	73551	43.742494619095	0
395	73553	43.747683263059	0
395	73554	43.752683263059	0
395	73865	44.505	1
395	74909	44.51	33
395	76972	44.515	0
395	78428	44.52	0
395	79627	44.525	0
395	80903	44.53	0
395	82178	44.535	0
395	83295	44.54	0
395	84238	44.545	0
395	84853	44.55	0
395	85569	44.555	0
395	86624	44.56	0
395	87736	44.565390849761	0
395	88553	44.570390849761	0
395	89686	44.577342870286	0
395	91166	44.582342870286	0
395	92500	44.587342870286	0
395	93604	44.592342870286	0
395	94430	44.597342870286	0
395	95268	44.602342870286	0
395	99106	44.620624298629	0
395	99462	44.625624298629	0
395	100327	44.630624298629	0
395	101402	44.635624298629	0
395	102480	44.640624298629	0
395	103102	44.645624298629	0
395	104012	44.650624298629	0
395	105214	44.655624298629	0
395	106124	44.660624298629	0
395	107653	44.670789862252	0
395	109015	44.675789862252	0
395	109704	44.680789862252	0
395	110501	44.685789862252	0
395	111268	44.690789862252	0
395	112419	44.697323457255	0
395	113345	44.702323457255	0
395	114585	44.707323457255	0
395	115254	44.712323457255	0
395	116872	44.723399836547	0
395	117725	44.728399836547	0
395	119070	44.733399836547	0
395	120311	44.738399836547	0
395	120896	44.743399836547	0
395	122477	44.753863075386	0
395	122947	44.758863075386	0
395	123633	44.764513674006	0
395	124214	44.769513674006	0
395	125487	44.77567991251	0
395	126168	44.78067991251	0
395	127106	44.78733163528	0
395	127563	44.79233163528	0
395	128508	44.79733163528	0
395	129471	44.80233163528	0
395	130325	44.80733163528	0
395	131593	44.815218208072	0
395	131809	44.820218208072	0
395	132496	44.826295608133	0
395	132856	44.831295608133	0
395	133330	44.836295608133	0
395	134018	44.841295608133	0
395	134134	44.846295608133	0
395	135789	44.858013980249	0
395	136362	44.863013980249	0
395	136836	44.870732334581	0
395	136837	44.875732334581	0
395	137316	44.884262765622	0
395	137317	44.889262765622	0
395	137526	45.505	1
395	138097	45.51	20
395	139493	45.515	0
395	141010	45.52	0
395	142043	45.525	0
395	143173	45.53	0
395	143892	45.535	0
395	144786	45.54	0
395	145634	45.545	0
395	146753	45.55	0
395	147682	45.555	0
395	148386	45.56	0
395	149640	45.565	0
395	150219	45.57	0
395	151124	45.575	0
395	152069	45.58	0
395	152790	45.585	0
395	153811	45.59	0
395	154662	45.595	0
395	155486	45.6	0
395	155702	45.605	0
395	156167	45.611013278925	0
395	157043	45.616013278925	0
395	157745	45.621013278925	0
395	159108	45.628366671993	0
395	159544	45.633366671993	0
395	160758	45.640174854884	0
395	162036	45.645174854884	0
395	162514	45.650174854884	0
395	163802	45.657318877321	0
395	164609	45.662318877321	0
395	165196	45.667318877321	0
395	167005	45.677170416267	0
395	168043	45.682170416267	0
395	168600	45.69255272871	0
395	169407	45.69755272871	0
395	169881	45.70255272871	0
395	170850	45.712193713173	0
395	171744	45.717193713173	0
395	172202	45.722193713173	0
395	172206	45.727193713173	0
395	172663	45.734234200434	0
395	172668	45.739234200434	0
395	173589	45.772095492832	0
395	173590	45.777095492832	0
395	174527	45.823573264797	0
395	174528	45.828573264797	0
395	174737	46.505	1
395	175391	46.51	32
395	177590	46.515	0
395	179057	46.52	0
395	180279	46.525	0
395	180927	46.53	0
395	182711	46.538132650922	0
395	183915	46.543132650922	0
395	186569	46.557611176046	0
395	187603	46.562611176046	0
395	189245	46.569245767857	0
395	190678	46.574245767857	0
395	192086	46.58090496068	0
395	192889	46.58590496068	0
395	194252	46.593179819521	0
395	195271	46.598179819521	0
395	196560	46.607209362981	0
395	197273	46.612209362981	0
395	198087	46.617209362981	0
395	198992	46.622209362981	0
395	200639	46.631008368333	0
395	201463	46.636008368333	0
395	202026	46.641008368333	0
395	203034	46.646008368333	0
395	204105	46.651008368333	0
395	204888	46.656008368333	0
395	205838	46.661008368333	0
395	206335	46.668378862822	0
395	207022	46.673378862822	0
395	208257	46.678378862822	0
395	208727	46.683378862822	0
395	209783	46.689599139672	0
395	210460	46.694599139672	0
395	212438	46.704898039637	0
395	213080	46.709898039637	0
395	213978	46.714898039637	0
395	215394	46.723228335341	0
395	216198	46.728228335341	0
395	216881	46.733228335341	0
395	218144	46.740577277828	0
395	219282	46.745577277828	0
395	220190	46.750577277828	0
395	221856	46.760481084084	0
395	222394	46.765481084084	0
395	222990	46.770700286776	0
395	223982	46.775700286776	0
395	224441	46.780700286776	0
395	224604	46.78729637175	0
395	225071	46.79229637175	0
395	225897	46.79729637175	0
395	227151	46.80229637175	0
395	227727	46.80729637175	0
395	228415	46.81229637175	0
395	229326	46.818193195316	0
395	230159	46.823193195316	0
395	230953	46.828193195316	0
395	231433	46.833193195316	0
395	232021	46.838193195316	0
395	232863	46.847908293004	0
395	233318	46.852908293004	0
395	233683	46.857908293004	0
395	234261	46.862908293004	0
395	234619	46.867908293004	0
395	236634	46.923129991863	0
395	236970	46.928129991863	0
395	237529	46.933129991863	0
395	237732	47.505	1
395	237844	47.51	0
395	239459	47.515936229315	31
395	241029	47.520936229315	0
395	242428	47.525936229315	0
395	243374	47.530936229315	0
395	244319	47.535936229315	0
395	245164	47.540936229315	0
395	246567	47.545936229315	0
395	247865	47.550936229315	0
395	249924	47.566829719829	0
395	250894	47.571829719829	0
395	252589	47.576829719829	0
395	253660	47.584929138747	0
395	254466	47.589929138747	0
395	256513	47.600424895627	0
395	257522	47.605424895627	0
395	258110	47.610424895627	0
395	258817	47.615424895627	0
395	260121	47.620424895627	0
395	261237	47.625424895627	0
395	262405	47.632439083625	0
395	263424	47.637439083625	0
395	264146	47.642439083625	0
395	265280	47.649047477187	0
395	265998	47.654047477187	0
395	267066	47.659047477187	0
395	267856	47.664047477187	0
395	268556	47.669047477187	0
395	269692	47.674047477187	0
395	270354	47.679047477187	0
395	271178	47.687857866302	0
395	271767	47.692857866302	0
395	272216	47.697857866302	0
395	273493	47.706941177578	0
395	273992	47.711941177578	0
395	275270	47.719580977998	0
395	276101	47.724580977998	0
395	276987	47.729580977998	0
395	277947	47.734866043829	0
395	278857	47.739866043829	0
395	279836	47.744866043829	0
395	280890	47.751152221778	0
395	281874	47.756152221778	0
395	282545	47.761152221778	0
395	284701	47.77555914859	0
395	285429	47.78055914859	0
395	286091	47.78555914859	0
395	287152	47.795571964613	0
395	287996	47.800571964613	0
395	288808	47.805571964613	0
395	289779	47.810571964613	0
395	290598	47.815571964613	0
395	291047	47.820571964613	0
395	292403	47.836731198027	0
395	292406	47.841731198027	0
395	293461	47.851940018038	0
395	294276	47.856940018038	0
395	294382	47.861940018038	0
395	296086	47.875617741033	0
395	296087	47.880617741033	0
395	296541	47.901407441648	0
395	296542	47.906407441648	0
395	297934	47.92472540162	0
395	298170	47.92972540162	0
395	298840	48.505	1
395	298850	48.51	0
395	299884	48.517887197166	24
395	300960	48.522887197166	0
395	301839	48.527887197166	0
395	302584	48.535194534329	0
395	303279	48.540194534329	0
395	303849	48.545194534329	0
395	304554	48.550194534329	0
395	305256	48.555194534329	0
395	305971	48.560194534329	0
395	306771	48.565194534329	0
395	307923	48.571996774417	0
395	309149	48.576996774417	0
395	310381	48.582496870132	0
395	311059	48.587496870132	0
395	311640	48.592496870132	0
395	312337	48.597496870132	0
395	313393	48.602496870132	0
395	313964	48.607496870132	0
395	314881	48.613225283675	0
395	315649	48.618225283675	0
395	316590	48.629576896305	0
395	317166	48.634576896305	0
395	317619	48.639576896305	0
395	318469	48.64518710592	0
395	318820	48.65018710592	0
395	319483	48.65518710592	0
395	319973	48.66018710592	0
395	320433	48.66518710592	0
395	321110	48.67018710592	0
395	321938	48.67518710592	0
395	322706	48.68018710592	0
395	323525	48.68518710592	0
395	324107	48.69018710592	0
395	324793	48.69518710592	0
395	325269	48.70018710592	0
395	326108	48.705535046934	0
395	327133	48.710535046934	0
395	327360	48.715535046934	0
395	328201	48.720720771478	0
395	328670	48.725720771478	0
395	329124	48.730720771478	0
395	330050	48.740718126327	0
395	330505	48.745718126327	0
395	331402	48.762662150445	0
395	331403	48.767662150445	0
395	331873	48.777000114885	0
395	331979	48.782000114885	0
395	332325	48.7886777218	0
395	332326	48.7936777218	0
395	333596	48.821924966642	0
395	334168	48.826924966642	0
395	335112	48.855372997507	0
395	335554	48.860372997507	0
395	335783	49.505	1
395	336766	49.51	34
395	338545	49.515	0
395	339735	49.52	0
395	340708	49.525	0
395	342645	49.532738040489	0
395	343706	49.537738040489	0
395	345118	49.543730066398	0
395	345875	49.548730066398	0
395	346735	49.553730066398	0
395	347478	49.558730066398	0
395	348306	49.563730066398	0
395	350070	49.571378662729	0
395	350593	49.576378662729	0
395	351822	49.581378662729	0
395	352646	49.586378662729	0
395	355819	49.604658445685	0
395	356847	49.609658445685	0
395	357325	49.614658445685	0
395	357947	49.619658445685	0
395	360803	49.63633238858	0
395	361521	49.64133238858	0
395	362261	49.64633238858	0
395	363511	49.65133238858	0
395	363874	49.65633238858	0
395	364958	49.661435634688	0
395	365749	49.666435634688	0
395	367160	49.673139825835	0
395	368294	49.678139825835	0
395	370744	49.693402463677	0
395	371460	49.698402463677	0
395	372579	49.703402463677	0
395	373426	49.708402463677	0
395	374409	49.713402463677	0
395	375233	49.718402463677	0
395	375800	49.723402463677	0
395	376854	49.730086218742	0
395	377975	49.735086218742	0
395	378553	49.740086218742	0
395	379148	49.745086218742	0
395	379686	49.750086218742	0
395	380538	49.755105622383	0
395	381216	49.760105622383	0
395	381839	49.765105622383	0
395	382416	49.770105622383	0
395	383023	49.775105622383	0
395	383754	49.780105622383	0
395	384541	49.785105622383	0
395	385711	49.793344373922	0
395	386446	49.798344373922	0
395	387137	49.803344373922	0
395	388098	49.813691661353	0
395	388453	49.818691661353	0
395	388926	49.823691661353	0
395	389733	49.828691661353	0
395	391163	49.837573664178	0
395	391638	49.842573664178	0
395	392326	49.847573664178	0
395	392761	49.852573664178	0
395	393589	49.859750059778	0
395	393712	49.864750059778	0
395	394623	49.878882684504	0
395	394624	49.883882684504	0
395	395287	50.505	1
395	395294	50.51	0
395	396838	50.518391755973	38
395	398511	50.523391755973	0
395	399711	50.528391755973	0
395	400824	50.533391755973	0
395	402297	50.538391755973	0
395	403377	50.543391755973	0
395	404468	50.548391755973	0
395	405629	50.553391755973	0
395	406593	50.558391755973	0
395	407203	50.563391755973	0
395	408259	50.568391755973	0
395	409389	50.573391755973	0
395	410939	50.578391755973	0
395	412060	50.583391755973	0
395	413223	50.588391755973	0
395	414501	50.593391755973	0
395	415249	50.598391755973	0
395	416430	50.604855446662	0
395	417710	50.609855446662	0
395	418764	50.614855446662	0
395	420050	50.619855446662	0
395	420791	50.624855446662	0
395	422035	50.629855446662	0
395	423065	50.634855446662	0
395	424285	50.639855446662	0
395	425314	50.644855446662	0
395	427014	50.654205731739	0
395	427633	50.659205731739	0
395	428574	50.664205731739	0
395	429942	50.669205731739	0
395	430758	50.674205731739	0
395	431371	50.679205731739	0
395	431980	50.684205731739	0
395	433123	50.689205731739	0
395	434304	50.695812700569	0
395	435165	50.700812700569	0
395	436174	50.705812700569	0
395	436975	50.710812700569	0
395	437818	50.716975191859	0
395	438383	50.721975191859	0
395	439347	50.728082878603	0
395	439965	50.733082878603	0
395	440799	50.738082878603	0
395	441485	50.743082878603	0
395	442799	50.748151803355	0
395	443842	50.753151803355	0
395	444583	50.758151803355	0
395	445314	50.763151803355	0
395	445803	50.768151803355	0
395	446428	50.773151803355	0
395	447256	50.778151803355	0
395	448343	50.784477385839	0
395	448915	50.789477385839	0
395	449994	50.794477385839	0
395	450703	50.799477385839	0
395	451067	50.804477385839	0
395	451790	50.809816103302	0
395	452033	50.814816103302	0
395	452423	50.821581436483	0
395	453138	50.826581436483	0
395	453718	50.831581436483	0
395	454398	50.836581436483	0
395	454756	50.841581436483	0
395	455475	50.85496711544	0
395	455586	50.85996711544	0
395	456429	50.868689312079	0
395	456536	50.873689312079	0
395	456908	50.878689312079	0
395	456909	50.883689312079	0
395	457825	50.918542389482	0
395	457826	50.923542389482	0
395	458300	50.966502396224	0
395	458301	50.971502396224	0
395	458864	50.979262404555	0
395	459198	50.984262404555	0
395	459418	51.505	1
395	459530	51.51	0
395	461646	51.515516190563	46
395	463059	51.520516190563	0
395	464613	51.525516190563	0
395	465698	51.530516190563	0
395	467194	51.535775528682	0
395	468774	51.540775528682	0
395	469646	51.545775528682	0
395	470614	51.550775528682	0
395	471371	51.555775528682	0
395	472755	51.560775528682	0
395	473956	51.565775528682	0
395	475167	51.570775528682	0
395	476174	51.575775528682	0
395	479117	51.591301698392	0
395	480414	51.596301698392	0
395	482158	51.604117793121	0
395	483239	51.609117793121	0
395	484328	51.614117793121	0
395	485197	51.619117793121	0
395	487197	51.628473550643	0
395	488040	51.633473550643	0
395	489211	51.638993731627	0
395	490458	51.643993731627	0
395	491179	51.648993731627	0
395	492725	51.659452939225	0
395	493651	51.664452939225	0
395	494429	51.669452939225	0
395	498408	51.691618177345	0
395	499271	51.696618177345	0
395	500710	51.701618177345	0
395	502066	51.706618177345	0
395	503151	51.713301206804	0
395	504134	51.718301206804	0
395	504985	51.723301206804	0
395	506394	51.728593136069	0
395	507013	51.733593136069	0
395	508982	51.742350023585	0
395	510033	51.747350023585	0
395	511097	51.752350023585	0
395	512629	51.761847270048	0
395	513481	51.766847270048	0
395	515301	51.775266765195	0
395	516380	51.780266765195	0
395	517339	51.785266765195	0
395	518817	51.792003120773	0
395	520200	51.797003120773	0
395	521132	51.802003120773	0
395	522475	51.807171246717	0
395	523326	51.812171246717	0
395	524610	51.817171246717	0
395	527345	51.832079524449	0
395	528415	51.837079524449	0
395	529823	51.842079524449	0
395	532053	51.852883176322	0
395	533234	51.857883176322	0
395	534195	51.862883176322	0
395	534705	51.867883176322	0
395	535773	51.872883176322	0
395	536988	51.877883176322	0
395	537819	51.882883176322	0
395	538313	51.887883176322	0
395	539399	51.897549242118	0
395	539780	51.902549242118	0
395	540839	51.907549242118	0
395	542389	51.916519309449	0
395	543191	51.921519309449	0
395	544723	51.932593176321	0
395	545395	51.937593176321	0
395	545967	51.942593176321	0
395	547064	51.950144678867	0
395	547544	51.955144678867	0
395	548253	51.963509150847	0
395	548957	51.968509150847	0
395	549944	51.977574485156	0
395	550448	51.982574485156	0
395	550946	51.987574485156	0
395	550952	51.992574485156	0
395	551640	52.000725261784	0
395	551989	52.005725261784	0
395	552136	52.010725261784	0
395	553102	52.055064898504	0
395	553103	52.060064898504	0
395	553142	52.505	1
395	553152	52.51	0
395	554933	52.518027486174	30
395	556379	52.523027486174	0
395	557941	52.528027486174	0
395	559210	52.533027486174	0
395	560273	52.538027486174	0
395	561126	52.543027486174	0
395	561736	52.548027486174	0
395	562769	52.553027486174	0
395	563940	52.558027486174	0
395	564749	52.563027486174	0
395	566124	52.570297630457	0
395	567141	52.575297630457	0
395	568093	52.580297630457	0
395	572030	52.602904105769	0
395	573073	52.607904105769	0
395	574587	52.614348455683	0
395	575221	52.619348455683	0
395	576246	52.624348455683	0
395	578020	52.632892190934	0
395	579083	52.637892190934	0
395	580553	52.646572546656	0
395	580918	52.651572546656	0
395	581632	52.657207595263	0
395	582390	52.662207595263	0
395	583836	52.667207595263	0
395	584980	52.672532464336	0
395	585966	52.677532464336	0
395	586440	52.682532464336	0
395	587421	52.687532464336	0
395	589196	52.6973642654	0
395	590158	52.7023642654	0
395	591961	52.715346259365	0
395	592875	52.720346259365	0
395	593462	52.725346259365	0
395	594069	52.730346259365	0
395	594433	52.735346259365	0
395	595836	52.740346259365	0
395	596668	52.745346259365	0
395	597350	52.750346259365	0
395	598731	52.75816315626	0
395	599413	52.76316315626	0
395	600008	52.76816315626	0
395	601117	52.77316315626	0
395	602061	52.77816315626	0
395	603126	52.78316315626	0
395	603609	52.78816315626	0
395	604287	52.79316315626	0
395	604769	52.79816315626	0
395	605252	52.80316315626	0
395	606296	52.808391242688	0
395	606887	52.813391242688	0
395	607857	52.818391242688	0
395	608351	52.823391242688	0
395	608842	52.828391242688	0
395	609577	52.833391242688	0
395	610023	52.838391242688	0
395	610419	52.844057966584	0
395	610530	52.849057966584	0
395	612335	52.866349842677	0
395	612336	52.871349842677	0
395	612567	53.505	1
395	612574	53.51	0
395	614698	53.52039372923	39
395	616586	53.52539372923	0
395	618442	53.533514925666	0
395	619749	53.538514925666	0
395	621322	53.543514925666	0
395	622303	53.548514925666	0
395	624072	53.556083537741	0
395	624916	53.561083537741	0
395	626226	53.566083537741	0
395	627232	53.571083537741	0
395	630375	53.585420992103	0
395	631149	53.590420992103	0
395	632366	53.595420992103	0
395	633689	53.600420992103	0
395	634766	53.605420992103	0
395	636065	53.610420992103	0
395	638332	53.621989942541	0
395	639089	53.626989942541	0
395	640144	53.631989942541	0
395	641525	53.636989942541	0
395	643955	53.648935398125	0
395	644547	53.653935398125	0
395	645889	53.658935398125	0
395	647176	53.663935398125	0
395	649669	53.674916832908	0
395	650651	53.679916832908	0
395	653423	53.691591838244	0
395	654049	53.696591838244	0
395	655377	53.703395130643	0
395	656361	53.708395130643	0
395	657099	53.714139017324	0
395	658297	53.719139017324	0
395	659362	53.724139017324	0
395	660451	53.729139017324	0
395	661867	53.734139017324	0
395	662806	53.739139017324	0
395	663802	53.744139017324	0
395	665979	53.754240812229	0
395	666963	53.759240812229	0
395	667797	53.764240812229	0
395	669127	53.769240812229	0
395	670016	53.774240812229	0
395	670938	53.779240812229	0
395	672353	53.78445327721	0
395	673118	53.78945327721	0
395	673683	53.79445327721	0
395	674733	53.801219740805	0
395	675483	53.806219740805	0
395	676299	53.811219740805	0
395	677033	53.817147219087	0
395	677768	53.822147219087	0
395	678784	53.827677228267	0
395	679945	53.832677228267	0
395	680938	53.837677228267	0
395	681669	53.842677228267	0
395	682654	53.847677228267	0
395	683334	53.852677228267	0
395	684214	53.857677228267	0
395	684587	53.862677228267	0
395	685091	53.868594989877	0
395	685688	53.873594989877	0
395	686798	53.878594989877	0
395	687515	53.883594989877	0
395	689397	53.898460184436	0
395	689888	53.903460184436	0
395	690480	53.908460184436	0
395	691098	53.913460184436	0
395	691623	53.918460184436	0
395	691857	53.923460184436	0
395	693290	53.935219562374	0
395	693800	53.940219562374	0
395	693801	53.945219562374	0
395	694478	54.001317216132	0
395	694479	54.006317216132	0
395	694519	54.505	1
395	695070	54.51	29
395	697129	54.515	0
395	698418	54.52	0
395	699399	54.525665787121	0
395	700012	54.530665787121	0
395	700987	54.535665787121	0
395	702960	54.545535081527	0
395	703814	54.550535081527	0
395	705669	54.559574272078	0
395	707146	54.564574272078	0
395	708722	54.574429772048	0
395	710095	54.579429772048	0
395	711143	54.584429772048	0
395	713192	54.593731319784	0
395	714190	54.598731319784	0
395	715027	54.603731319784	0
395	716003	54.608731319784	0
395	720377	54.63526407095	0
395	721305	54.64026407095	0
395	722648	54.646884334211	0
395	723348	54.651884334211	0
395	726598	54.676107825459	0
395	727608	54.681107825459	0
395	731497	54.702454812939	0
395	732489	54.707454812939	0
395	733539	54.712454812939	0
395	734519	54.717454812939	0
395	735468	54.722454812939	0
395	736410	54.727454812939	0
395	737269	54.732454812939	0
395	738070	54.737454812939	0
395	739342	54.742454812939	0
395	740770	54.749320185571	0
395	741859	54.754320185571	0
395	743837	54.765675314673	0
395	743952	54.770675314673	0
395	744811	54.775675314673	0
395	745621	54.780675314673	0