version 2
run AODVScenario_1f-36-20121119-16:11:18-2940
attr configname AODVScenario_1f
attr datetime 20121119-16:11:18
attr experiment AODVScenario_1f
attr inifile AODV.ini
attr iterationvars $numNodes=86
attr iterationvars2 "$numNodes=86, $repetition=0"
attr measurement $numNodes=86
attr network csma802154net
attr numNodes 86
attr processid 2940
attr repetition 0
attr replication #0
attr resultdir results
attr runnumber 36
attr seedset 36

vector 355  csma802154net.dataCentricNetworkMan  RREQPacketFrequency  ETV
vector 356  csma802154net.dataCentricNetworkMan  RERRPacketFrequency  ETV
vector 357  csma802154net.dataCentricNetworkMan  DiscoveryPacketFrequency  ETV
vector 358  csma802154net.dataCentricNetworkMan  RegisterPacketFrequency  ETV
vector 359  csma802154net.dataCentricNetworkMan  RReplyPacketFrequency  ETV
vector 360  csma802154net.dataCentricNetworkMan  AODVDataPacketFrequency  ETV
vector 367  csma802154net.dataCentricNetworkMan  pendingRegistrationVector  ETV
vector 366  csma802154net.dataCentricNetworkMan  pendingRREQVector  ETV
vector 364  csma802154net.dataCentricNetworkMan  PendingDataPacketsVector  ETV
vector 381  csma802154net.fixhost[13].udpApp  "End-to-end delay"  ETV
vector 352  csma802154net.dataCentricNetworkMan  dataPacketE2EDelay  ETV
vector 383  csma802154net.fixhost[15].udpApp  "End-to-end delay"  ETV
vector 378  csma802154net.fixhost[10].udpApp  "End-to-end delay"  ETV
vector 380  csma802154net.fixhost[12].udpApp  "End-to-end delay"  ETV
vector 384  csma802154net.fixhost[16].udpApp  "End-to-end delay"  ETV
vector 370  csma802154net.fixhost[2].udpApp  "End-to-end delay"  ETV
vector 371  csma802154net.fixhost[3].udpApp  "End-to-end delay"  ETV
vector 374  csma802154net.fixhost[6].udpApp  "End-to-end delay"  ETV
vector 379  csma802154net.fixhost[11].udpApp  "End-to-end delay"  ETV
vector 375  csma802154net.fixhost[7].udpApp  "End-to-end delay"  ETV
352	871547	70.017876039765	0.017876039765
352	872399	70.028644075426	0.028644075426
352	874327	71.027476058047	0.027476058047
352	875187	71.034084083165	0.034084083165
352	876043	71.043892105669	0.043892105669
352	878843	72.028644074984	0.028644074984
352	879297	72.034436098808	0.034436098808
352	883001	73.029916086353	0.029916086353
352	885262	73.046476127093	0.046476127093
352	885708	73.068484120063	0.068484120063
352	992694	670.017236039765	0.017236039765
352	993545	670.024804075426	0.024804075426
352	995470	671.014676058047	0.014676058047
352	997138	671.045924083165	0.045924083165
352	997998	671.073652105669	0.073652105669
352	1000800	672.023844074984	0.023844074984
352	1001251	672.026436098809	0.026436098809
352	1004842	673.027996086353	0.027996086353
352	1006758	673.041852127093	0.041852127093
352	1007660	673.047860120062	0.047860120062
352	1114646	1270.019476039765	0.019476039765
352	1115498	1270.026724075426	0.026724075426
352	1117425	1271.020756058047	0.020756058047
352	1118282	1271.030244083165	0.030244083165
352	1119138	1271.039484105669	0.039484105669
352	1121528	1272.020716074983	0.020716074983
352	1122392	1272.031484098807	0.031484098807
352	1126287	1273.038164086352	0.038164086352
352	1127651	1273.049924120063	0.049924120063
352	1128995	1273.066884127093	0.066884127093
352	1236475	1870.021036075424	0.021036075424
352	1236937	1870.028292039764	0.028292039764
352	1239267	1871.022036058047	0.022036058047
352	1239895	1871.026404083165	0.026404083165
352	1241193	1871.051964105669	0.051964105669
352	1243583	1872.020716074984	0.020716074984
352	1244446	1872.028924098809	0.028924098809
352	1249651	1873.039756120063	0.039756120063
352	1250570	1873.047364127093	0.047364127093
352	1251120	1873.054484086352	0.054484086352
352	1358830	2470.016916039765	0.016916039765
352	1359686	2470.045284075426	0.045284075426
352	1361612	2471.014036058047	0.014036058047
352	1362472	2471.022564083165	0.022564083165
352	1363324	2471.029884105669	0.029884105669
352	1366115	2472.022916098807	0.022916098807
352	1366560	2472.025124074982	0.025124074982
352	1370477	2473.034004086353	0.034004086353
352	1371842	2473.045444120064	0.045444120064
352	1373641	2473.064324127094	0.064324127094
352	1481041	3070.019404039765	0.019404039765
352	1481477	3070.021676075426	0.021676075426
352	1483818	3071.019476058047	0.019476058047
352	1484445	3071.024236083165	0.024236083165
352	1485743	3071.050364105669	0.050364105669
352	1488311	3072.022956074983	0.022956074983
352	1489179	3072.052284098807	0.052284098807
352	1492770	3073.028316086353	0.028316086353
352	1494425	3073.039364120064	0.039364120064
352	1495769	3073.066492127093	0.066492127093
352	1603257	3670.021964039764	0.021964039764
352	1603696	3670.028644075426	0.028644075426
352	1606042	3671.020436058047	0.020436058047
352	1606673	3671.028572083165	0.028572083165
352	1607971	3671.051644105669	0.051644105669
352	1610361	3672.021036074984	0.021036074984
352	1611224	3672.028924098808	0.028924098808
352	1615105	3673.029276086352	0.029276086352
352	1616466	3673.041284127091	0.041284127091
352	1617811	3673.061124120061	0.061124120061
352	1725213	4270.021004039764	0.021004039764
352	1725653	4270.025764075424	0.025764075424
352	1728820	4271.029924083163	0.029924083163
352	1729264	4271.050684105667	0.050684105667
352	1729714	4271.058300058044	0.058300058044
352	1732101	4272.021356074983	0.021356074983
352	1732965	4272.031804098806	0.031804098806
352	1737720	4273.041356120061	0.041356120061
352	1738641	4273.049852127091	0.049852127091
352	1739552	4273.065860086352	0.065860086352
352	1846970	4870.026476075426	0.026476075426
352	1847433	4870.038212039764	0.038212039764
352	1850777	4871.047772083165	0.047772083165
352	1851214	4871.050372058046	0.050372058046
352	1851657	4871.053492105669	0.053492105669
352	1854225	4872.022636074984	0.022636074984
352	1855093	4872.049404098809	0.049404098809
352	1859633	4873.036236120063	0.036236120063
352	1860308	4873.041292086353	0.041292086353
352	1861675	4873.060484127093	0.060484127093
352	1968746	5470.018516039764	0.018516039764
352	1969598	5470.027364075425	0.027364075425
352	1971525	5471.019476058047	0.019476058047
352	1972385	5471.027684083165	0.027684083165
352	1973238	5471.037564105669	0.037564105669
352	1976030	5472.024516098808	0.024516098808
352	1976479	5472.034972074983	0.034972074983
352	1981032	5473.034324086353	0.034324086353
352	1982174	5473.044412127092	0.044412127092
352	1983559	5473.066420120062	0.066420120062
352	2090723	6070.017236039764	0.017236039764
352	2091579	6070.046884075425	0.046884075425
352	2093506	6071.017556058047	0.017556058047
352	2094363	6071.028004083165	0.028004083165
352	2095219	6071.036604105669	0.036604105669
352	2098007	6072.024516098808	0.024516098808
352	2098455	6072.027364074983	0.027364074983
352	2103461	6073.040324120064	0.040324120064
352	2104434	6073.057612086353	0.057612086353
352	2105472	6073.068412127093	0.068412127093
352	2212887	6670.016276039765	0.016276039765
352	2213739	6670.026084075426	0.026084075426
352	2215665	6671.017556058047	0.017556058047
352	2217568	6671.051364083165	0.051364083165
352	2218006	6671.054524105669	0.054524105669
352	2220809	6672.024164074983	0.024164074983
352	2221263	6672.029564098808	0.029564098808
352	2224749	6673.029596086351	0.029596086351
352	2226924	6673.061444127091	0.061444127091
352	2227832	6673.070652120062	0.070652120062
352	2335082	7270.016276039765	0.016276039765
352	2335939	7270.046564075426	0.046564075426
352	2337865	7271.014676058045	0.014676058045
352	2338727	7271.026084083163	0.026084083163
352	2339583	7271.037812105667	0.037812105667
352	2342376	7272.027396098809	0.027396098809
352	2342825	7272.038492074984	0.038492074984
352	2346327	7273.031836086351	0.031836086351
352	2348983	7273.068732120063	0.068732120063
352	2349440	7273.072004127092	0.072004127092
355	690	1.005	1
355	898	1.01	14
355	1010	1.015	0
355	1605	1.020335135783	50
355	2679	1.025335135783	89
355	4534	1.030335135783	91
355	6347	1.035335135783	77
355	8158	1.040335135783	62
355	10024	1.045335135783	88
355	11869	1.050335135783	64
355	13004	1.055335135783	59
355	14186	1.060335135783	95
355	15270	1.065335135783	84
355	16180	1.070335135783	99
355	16549	1.075335135783	35
355	17763	1.080335135783	120
355	18267	1.085335135783	42
355	18865	1.090335135783	67
355	19198	1.095335135783	30
355	19801	1.100335135783	51
355	20808	1.105335135783	100
355	21298	1.110335135783	19
355	21925	1.115335135783	55
355	22594	1.120335135783	44
355	23169	1.125335135783	44
355	23400	1.130335135783	30
355	23401	1.135335135783	0
355	24051	1.145063293333	62
355	24476	1.150063293333	27
355	25400	1.155063293333	78
355	25665	1.160063293333	36
355	25944	1.165063293333	20
355	26370	1.170063293333	31
355	26626	1.175063293333	35
355	26627	1.180063293333	0
355	34205	43.505	1
355	35277	43.51	27
355	36659	43.515	0
355	37312	43.52	0
355	38834	43.533301028805	0
355	39479	43.538301028805	0
355	40271	43.543301028805	0
355	41057	43.548508197848	0
355	41778	43.553508197848	0
355	42411	43.558508197848	0
355	43038	43.563508197848	0
355	44325	43.570333113935	0
355	45142	43.575333113935	0
355	45849	43.580333113935	0
355	46356	43.585333113935	0
355	47378	43.590333113935	0
355	48279	43.595333113935	0
355	49104	43.600333113935	0
355	49636	43.605333113935	0
355	50259	43.610333113935	0
355	51825	43.617358712606	0
355	52446	43.622358712606	0
355	52969	43.627358712606	0
355	54912	43.642045702401	0
355	55577	43.647045702401	0
355	56363	43.652045702401	0
355	58328	43.667156870693	0
355	58893	43.672156870693	0
355	61352	43.690308282647	0
355	61854	43.695308282647	0
355	62098	43.700579100159	0
355	63189	43.705579100159	0
355	66946	43.73242991354	0
355	67921	43.73742991354	0
355	68954	43.745899688912	0
355	69500	43.750899688912	0
355	70017	43.755899688912	0
355	70993	43.761097027843	0
355	71811	43.766097027843	0
355	72128	43.771097027843	0
355	72772	43.776097027843	0
355	72967	43.781097027843	0
355	73683	43.786431149426	0
355	74091	43.791431149426	0
355	75883	43.806148900097	0
355	76497	43.811148900097	0
355	77431	43.817460909139	0
355	77755	43.822460909139	0
355	78179	43.827965557228	0
355	78603	43.832965557228	0
355	79124	43.837965557228	0
355	79834	43.842965557228	0
355	80447	43.847965557228	0
355	80864	43.852965557228	0
355	82437	43.865180224117	0
355	82438	43.870180224117	0
355	82952	43.890088918373	0
355	83241	43.895088918373	0
355	83337	43.900088918373	0
355	83664	43.906229530967	0
355	83665	43.911229530967	0
355	84496	43.919767093616	0
355	84500	43.924767093616	0
355	84680	44.505	1
355	84690	44.51	0
355	86010	44.517228453045	31
355	87571	44.522228453045	0
355	88439	44.527228453045	0
355	89234	44.532228453045	0
355	90237	44.537351795422	0
355	91192	44.542351795422	0
355	92102	44.547351795422	0
355	92822	44.552351795422	0
355	94412	44.563580061634	0
355	95162	44.568580061634	0
355	96006	44.573580061634	0
355	97329	44.582555634641	0
355	98496	44.587555634641	0
355	99676	44.592555634641	0
355	100409	44.597555634641	0
355	100929	44.602555634641	0
355	101857	44.610004431518	0
355	102881	44.615004431518	0
355	104021	44.620004431518	0
355	107215	44.639803842417	0
355	108053	44.644803842417	0
355	108798	44.649803842417	0
355	109616	44.654803842417	0
355	110770	44.660008519732	0
355	111598	44.665008519732	0
355	113015	44.672102856355	0
355	113679	44.677102856355	0
355	114407	44.682102856355	0
355	115441	44.687102856355	0
355	116476	44.693316965409	0
355	117286	44.698316965409	0
355	118159	44.703652341609	0
355	118789	44.708652341609	0
355	119632	44.713652341609	0
355	120312	44.718652341609	0
355	120947	44.723652341609	0
355	121786	44.728652341609	0
355	122498	44.733652341609	0
355	123642	44.740291550778	0
355	124052	44.745291550778	0
355	125217	44.754877356679	0
355	125844	44.759877356679	0
355	126460	44.764877356679	0
355	127293	44.77379737784	0
355	127731	44.77879737784	0
355	128682	44.787702886597	0
355	129121	44.792702886597	0
355	129645	44.797702886597	0
355	130742	44.802702886597	0
355	131495	44.807702886597	0
355	131594	44.812702886597	0
355	132341	44.823302955225	0
355	132951	44.828302955225	0
355	133262	44.833302955225	0
355	133805	44.838302955225	0
355	134222	44.843302955225	0
355	134226	44.848302955225	0
355	134660	44.856912704036	0
355	135090	44.861912704036	0
355	135502	44.866912704036	0
355	135506	44.871912704036	0
355	135926	44.878909168153	0
355	135930	44.883909168153	0
355	136368	44.891112968757	0
355	136369	44.896112968757	0
355	136549	45.505	1
355	136556	45.51	0
355	139113	45.518783396497	44
355	141177	45.523783396497	0
355	142036	45.528783396497	0
355	143128	45.533783396497	0
355	143559	45.538783396497	0
355	144782	45.543783396497	0
355	146022	45.548783396497	0
355	149829	45.568283620902	0
355	151478	45.573283620902	0
355	152416	45.578283620902	0
355	153372	45.583283620902	0
355	154592	45.588283620902	0
355	157097	45.600612038757	0
355	158222	45.605612038757	0
355	162155	45.628765796159	0
355	163528	45.633765796159	0
355	164366	45.638765796159	0
355	165620	45.643765796159	0
355	166901	45.648765796159	0
355	167792	45.653765796159	0
355	170448	45.669879232874	0
355	171499	45.674879232874	0
355	173699	45.687426782127	0
355	174530	45.692426782127	0
355	175488	45.697426782127	0
355	176713	45.702426782127	0
355	177694	45.707426782127	0
355	178927	45.712426782127	0
355	179781	45.717426782127	0
355	180808	45.722426782127	0
355	181731	45.727426782127	0
355	183209	45.732426782127	0
355	184260	45.737426782127	0
355	185184	45.742426782127	0
355	187127	45.751258757456	0
355	188164	45.756258757456	0
355	189199	45.761258757456	0
355	190133	45.766258757456	0
355	191297	45.77222860886	0
355	192139	45.77722860886	0
355	192981	45.78222860886	0
355	194102	45.78722860886	0
355	198072	45.812563088039	0
355	198725	45.817563088039	0
355	199512	45.822563088039	0
355	202487	45.839502364956	0
355	203526	45.844502364956	0
355	204242	45.849502364956	0
355	205905	45.859196133645	0
355	206548	45.864196133645	0
355	207922	45.871469894089	0
355	209292	45.876469894089	0
355	209940	45.882710272563	0
355	210848	45.887710272563	0
355	211678	45.892710272563	0
355	212966	45.901957495329	0
355	213302	45.906957495329	0
355	214049	45.911957495329	0
355	214967	45.916957495329	0
355	215984	45.921957495329	0
355	216804	45.926957495329	0
355	218055	45.938598173194	0
355	218896	45.943598173194	0
355	219556	45.948598173194	0
355	220396	45.953598173194	0
355	221102	45.958598173194	0
355	222483	45.966907811159	0
355	223042	45.971907811159	0
355	224284	45.977110147232	0
355	225017	45.982110147232	0
355	225754	45.989012661327	0
355	226186	45.994012661327	0
355	227487	46.006548495634	0
355	228303	46.011548495634	0
355	229609	46.033176480826	0
355	230034	46.038176480826	0
355	230035	46.043176480826	0
355	230471	46.052861623625	0
355	230472	46.057861623625	0
355	230580	46.505	1
355	231375	46.51	31
355	232677	46.515	0
355	233752	46.52	0
355	234860	46.525	0
355	235950	46.53	0
355	236966	46.535	0
355	238090	46.54	0
355	239226	46.545	0
355	240754	46.552026414854	0
355	241280	46.557026414854	0
355	243721	46.570884024989	0
355	244546	46.575884024989	0
355	245442	46.580884024989	0
355	246711	46.588170110726	0
355	247228	46.593170110726	0
355	248059	46.599210129626	0
355	249271	46.604210129626	0
355	250062	46.609210129626	0
355	251033	46.614842662993	0
355	252116	46.619842662993	0
355	253042	46.624842662993	0
355	253773	46.629842662993	0
355	254614	46.634842662993	0
355	255258	46.639842662993	0
355	256017	46.644842662993	0
355	257250	46.649842662993	0
355	257961	46.654842662993	0
355	259002	46.660468460751	0
355	259728	46.665468460751	0
355	260493	46.670468460751	0
355	261652	46.677232501693	0
355	262424	46.682232501693	0
355	263863	46.690262615146	0
355	264869	46.695262615146	0
355	267403	46.716326567107	0
355	267866	46.721326567107	0
355	268586	46.726326567107	0
355	269299	46.731326567107	0
355	270083	46.736326567107	0
355	273673	46.757583975239	0
355	274581	46.762583975239	0
355	275560	46.767583975239	0
355	275987	46.772583975239	0
355	276721	46.779876972351	0
355	277246	46.784876972351	0
355	277864	46.794329347736	0
355	278378	46.799329347736	0
355	279215	46.804329347736	0
355	279633	46.809329347736	0
355	281535	46.83573813756	0
355	282399	46.84073813756	0
355	283032	46.84573813756	0
355	283137	46.85073813756	0
355	283955	46.858102591217	0
355	284051	46.863102591217	0
355	284465	46.868645074612	0
355	284906	46.873645074612	0
355	285746	46.878645074612	0
355	286074	46.883645074612	0
355	286492	46.888645074612	0
355	286493	46.893645074612	0
355	286915	46.915518640873	0
355	286916	46.920518640873	0
355	287096	47.505	1
355	287106	47.51	0
355	288460	47.517724465749	28
355	289411	47.522724465749	0
355	290857	47.530803808061	0
355	292204	47.535803808061	0
355	292740	47.540803808061	0
355	294131	47.548521714787	0
355	295178	47.553521714787	0
355	296066	47.558521714787	0
355	297029	47.568550060692	0
355	297605	47.573550060692	0
355	298060	47.578550060692	0
355	298923	47.583550060692	0
355	300808	47.598490868727	0
355	301226	47.603490868727	0
355	302052	47.608490868727	0
355	305079	47.630978427202	0
355	305765	47.635978427202	0
355	307757	47.649418115338	0
355	308490	47.654418115338	0
355	309397	47.659418115338	0
355	310583	47.664418115338	0
355	311118	47.669418115338	0
355	312053	47.674418115338	0
355	313908	47.691020597444	0
355	314347	47.696020597444	0
355	314871	47.701020597444	0
355	315739	47.706591710998	0
355	316262	47.711591710998	0
355	317381	47.716591710998	0
355	318169	47.721591710998	0
355	318935	47.726591710998	0
355	319666	47.731591710998	0
355	320392	47.736591710998	0
355	321439	47.743416222054	0
355	321967	47.748416222054	0
355	324478	47.765705055992	0
355	325235	47.770705055992	0
355	325754	47.775705055992	0
355	326605	47.781657565174	0
355	327045	47.786657565174	0
355	327765	47.79265876047	0
355	328277	47.79765876047	0
355	329112	47.80265876047	0
355	329745	47.80765876047	0
355	329864	47.81265876047	0
355	330946	47.819862071047	0
355	331063	47.824862071047	0
355	331924	47.83207355008	0
355	332350	47.83707355008	0
355	332759	47.84207355008	0
355	333165	47.84707355008	0
355	333574	47.855203826113	0
355	333578	47.860203826113	0
355	334513	47.867233579972	0
355	335159	47.872233579972	0
355	335253	47.877233579972	0
355	335692	47.943396164879	0
355	335693	47.948396164879	0
355	335974	48.505	1
355	337277	48.51	36
355	338788	48.515	0
355	340381	48.52	0
355	341044	48.525	0
355	342153	48.531999383341	0
355	343210	48.536999383341	0
355	344102	48.541999383341	0
355	346391	48.552998865626	0
355	347149	48.557998865626	0
355	348541	48.565815400697	0
355	349095	48.570815400697	0
355	349903	48.575815400697	0
355	351627	48.586438883973	0
355	352648	48.591438883973	0
355	353444	48.596438883973	0
355	354305	48.601438883973	0
355	354971	48.606438883973	0
355	356128	48.613227748696	0
355	357371	48.618227748696	0
355	358224	48.623227748696	0
355	359243	48.628227748696	0
355	360641	48.636096053177	0
355	361573	48.641096053177	0
355	362626	48.647871521251	0
355	363493	48.652871521251	0
355	364239	48.657871521251	0
355	365277	48.662871521251	0
355	366851	48.674150784204	0
355	367511	48.679150784204	0
355	367931	48.684150784204	0
355	369082	48.691711120369	0
355	369645	48.696711120369	0
355	370442	48.701711120369	0
355	371197	48.707838924399	0
355	371837	48.712838924399	0
355	373074	48.717838924399	0
355	374200	48.722838924399	0
355	374630	48.727838924399	0
355	375316	48.733065130305	0
355	376298	48.738065130305	0
355	377052	48.743065130305	0
355	377587	48.748065130305	0
355	379681	48.761837420299	0
355	380328	48.766837420299	0
355	381370	48.771837420299	0
355	382578	48.776837420299	0
355	383279	48.781837420299	0
355	384099	48.786837420299	0
355	384535	48.791837420299	0
355	385271	48.796837420299	0
355	386226	48.801837420299	0
355	388272	48.81579332675	0
355	389130	48.82079332675	0
355	389985	48.82579332675	0
355	390708	48.83079332675	0
355	391538	48.83579332675	0
355	391753	48.84079332675	0
355	393044	48.847566830116	0
355	393779	48.852566830116	0
355	394315	48.857566830116	0
355	395671	48.866572799847	0
355	395977	48.871572799847	0
355	396707	48.882319120369	0
355	396804	48.887319120369	0
355	397347	48.893770343894	0
355	397955	48.898770343894	0
355	399853	49.505	1
355	400712	49.51	47
355	402695	49.515	0
355	404040	49.52	0
355	405706	49.525	0
355	406924	49.53	0
355	407576	49.535	0
355	408949	49.54	0
355	410394	49.545	0
355	411638	49.55	0
355	414123	49.560524015964	0
355	414862	49.565524015964	0
355	416002	49.570997689959	0
355	417536	49.575997689959	0
355	418676	49.580997689959	0
355	421443	49.593464434462	0
355	422723	49.598464434462	0
355	424004	49.603464434462	0
355	425859	49.613479682303	0
355	426734	49.618479682303	0
355	428151	49.624989745984	0
355	429321	49.629989745984	0
355	430218	49.634989745984	0
355	438755	49.678117777797	0
355	439829	49.683117777797	0
355	440644	49.688117777797	0
355	441596	49.693117777797	0
355	443841	49.704838713583	0
355	444670	49.709838713583	0
355	446453	49.720187882205	0
355	447405	49.725187882205	0
355	448333	49.730187882205	0
355	449679	49.735187882205	0
355	450684	49.740187882205	0
355	451715	49.745187882205	0
355	452495	49.750187882205	0
355	453556	49.755697864373	0
355	454621	49.760697864373	0
355	455717	49.765697864373	0
355	456911	49.770697864373	0
355	458272	49.775697864373	0
355	459564	49.782564927394	0
355	460338	49.787564927394	0
355	461524	49.793008193199	0
355	462482	49.798008193199	0
355	465010	49.81027265949	0
355	466105	49.81527265949	0
355	466911	49.82027265949	0
355	467802	49.82527265949	0
355	468898	49.83027265949	0
355	469740	49.83527265949	0
355	471808	49.845743576107	0
355	472678	49.850743576107	0
355	474305	49.858673943267	0
355	474961	49.863673943267	0
355	476031	49.868673943267	0
355	476904	49.873673943267	0
355	477674	49.878673943267	0
355	478627	49.883673943267	0
355	479737	49.893349936572	0
355	480591	49.898349936572	0
355	481519	49.906519907224	0
355	482100	49.911519907224	0
355	482988	49.916519907224	0
355	483627	49.921519907224	0
355	484800	49.926519907224	0
355	485467	49.931519907224	0
355	486010	49.936519907224	0
355	487330	49.946508050286	0
355	487851	49.951508050286	0
355	488489	49.956508050286	0
355	489493	49.963526804163	0
355	490128	49.968526804163	0
355	490826	49.977865553662	0
355	491792	49.982865553662	0
355	492222	49.987865553662	0
355	492891	49.992865553662	0
355	493336	49.997865553662	0
355	493860	50.002865553662	0
355	494504	50.007865553662	0
355	494949	50.019209518145	0
355	495418	50.024209518145	0
355	495849	50.029209518145	0
355	495850	50.034209518145	0
355	496322	50.049005710114	0
355	496769	50.054005710114	0
355	496865	50.059005710114	0
355	497226	50.064587190626	0
355	497227	50.069587190626	0
355	497265	50.505	1
355	497367	50.51	0
355	499437	50.516436815444	49
355	501194	50.521436815444	0
355	502556	50.526436815444	0
355	503997	50.531436815444	0
355	504574	50.536436815444	0
355	505870	50.541436815444	0
355	507361	50.546436815444	0
355	508843	50.551436815444	0
355	509824	50.556436815444	0
355	513293	50.572900917696	0
355	514349	50.577900917696	0
355	515431	50.582900917696	0
355	516685	50.587900917696	0
355	518699	50.597717680275	0
355	519789	50.602717680275	0
355	521131	50.607717680275	0
355	525133	50.626792403367	0
355	526313	50.631792403367	0
355	527544	50.636792403367	0
355	528615	50.641792403367	0
355	529674	50.646792403367	0
355	532631	50.661651721936	0
355	534195	50.666651721936	0
355	535295	50.671651721936	0
355	536353	50.676651721936	0
355	537584	50.681651721936	0
355	539254	50.689176842365	0
355	540103	50.694176842365	0
355	540988	50.699176842365	0
355	541985	50.704176842365	0
355	543252	50.709176842365	0
355	544298	50.714176842365	0
355	545838	50.722448975609	0
355	547083	50.727448975609	0
355	547750	50.732448975609	0
355	548828	50.73855407856	0
355	549973	50.74355407856	0
355	550733	50.74855407856	0
355	551605	50.75355407856	0
355	552883	50.75855407856	0
355	553625	50.76355407856	0
355	554446	50.768811197643	0
355	555651	50.773811197643	0
355	556921	50.778811197643	0
355	558865	50.787820529648	0
355	559771	50.792820529648	0
355	560435	50.797820529648	0
355	561487	50.802820529648	0
355	563116	50.808715031843	0
355	563889	50.813715031843	0
355	565172	50.818843062454	0
355	565613	50.823843062454	0
355	566834	50.828843062454	0
355	568010	50.833843062454	0
355	568645	50.838843062454	0
355	569667	50.844988039078	0
355	570325	50.849988039078	0
355	571809	50.857265571611	0
355	572931	50.862265571611	0
355	573960	50.867265571611	0
355	574892	50.874842301148	0
355	575953	50.879842301148	0
355	576723	50.884842301148	0
355	577386	50.889842301148	0
355	578457	50.894842301148	0
355	579654	50.904989637285	0
355	580489	50.909989637285	0
355	581813	50.919695997201	0
355	582282	50.924695997201	0
355	582758	50.929695997201	0
355	583323	50.934695997201	0
355	584852	50.942681299121	0
355	585923	50.947681299121	0
355	586014	50.952681299121	0
355	586480	50.961272021071	0
355	587038	50.966272021071	0
355	587977	50.971272021071	0
355	588898	50.977233218761	0
355	588902	50.982233218761	0
355	589460	50.990400028043	0
355	590442	50.995400028043	0
355	591275	51.000400028043	0
355	591724	51.011786943944	0
355	592284	51.016786943944	0
355	593135	51.021786943944	0
355	593483	51.028476059486	0
355	593484	51.033476059486	0
355	594036	51.044286471744	0
355	594389	51.049286471744	0
355	594390	51.054286471744	0
355	594542	51.505	1
355	595601	51.51	36
355	596796	51.515	0
355	597943	51.52	0
355	599106	51.525	0
355	600228	51.53	0
355	601541	51.535	0
355	602284	51.54	0
355	606361	51.563881692443	0
355	607403	51.568881692443	0
355	608844	51.574031280819	0
355	609747	51.579031280819	0
355	610774	51.584031280819	0
355	611805	51.589031280819	0
355	612616	51.594031280819	0
355	613546	51.599031280819	0
355	614442	51.604031280819	0
355	615405	51.609031280819	0
355	617893	51.622332175702	0
355	618724	51.627332175702	0
355	620994	51.638171475716	0
355	621859	51.643171475716	0
355	622613	51.648171475716	0
355	623492	51.653171475716	0
355	624016	51.658171475716	0
355	624885	51.663171475716	0
355	626196	51.672744495273	0
355	626855	51.677744495273	0
355	627945	51.684553759359	0
355	628628	51.689553759359	0
355	630716	51.701718228703	0
355	631612	51.706718228703	0
355	632268	51.711718228703	0
355	632901	51.716718228703	0
355	633575	51.721718228703	0
355	634350	51.726718228703	0
355	635240	51.731718228703	0
355	636001	51.736718228703	0
355	636779	51.741718228703	0
355	637696	51.746718228703	0
355	638215	51.751718228703	0
355	639380	51.759264768342	0
355	640244	51.764264768342	0
355	640929	51.77026107824	0
355	641958	51.77526107824	0
355	642809	51.78026107824	0
355	643662	51.78526107824	0
355	644199	51.79026107824	0
355	644611	51.79526107824	0
355	645390	51.800293614314	0
355	645633	51.805293614314	0
355	646534	51.810293614314	0
355	647211	51.815293614314	0
355	648532	51.822792496306	0
355	648970	51.827792496306	0
355	649520	51.832792496306	0
355	650168	51.837792496306	0
355	650813	51.842792496306	0
355	651272	51.847792496306	0
355	652065	51.852792496306	0
355	652746	51.857792496306	0
355	653520	51.862792496306	0
355	654090	51.867792496306	0
355	654652	51.875783862239	0
355	655462	51.880783862239	0
355	655910	51.885783862239	0
355	656361	51.890783862239	0
355	657319	51.8997276145	0
355	657623	51.9047276145	0
355	658275	52.505	1
355	658853	52.51	49
355	661019	52.515	0
355	662974	52.52	0
355	664516	52.525	0
355	665982	52.53	0
355	666976	52.535	0
355	668217	52.54	0
355	669208	52.545	0
355	670624	52.55	0
355	672454	52.555	0
355	673527	52.56	0
355	674843	52.566643973406	0
355	676175	52.571643973406	0
355	680061	52.586659017299	0
355	680927	52.591659017299	0
355	681907	52.596659017299	0
355	684093	52.606391449118	0
355	685127	52.611391449118	0
355	686345	52.616391449118	0
355	687096	52.621391449118	0
355	688973	52.629289153676	0
355	689831	52.634289153676	0
355	691333	52.639419392383	0
355	692309	52.644419392383	0
355	693096	52.649419392383	0
355	694262	52.654419392383	0
355	695720	52.659683751824	0
355	696715	52.664683751824	0
355	699530	52.679682860084	0
355	700501	52.684682860084	0
355	701901	52.691373894676	0
355	702957	52.696373894676	0
355	705359	52.708524465669	0
355	706461	52.713524465669	0
355	707476	52.718524465669	0
355	708387	52.724140862198	0
355	709806	52.729140862198	0
355	710769	52.734140862198	0
355	711863	52.739140862198	0
355	712853	52.744140862198	0
355	713955	52.751323155195	0
355	714833	52.756323155195	0
355	716756	52.766354948561	0
355	717699	52.771354948561	0
355	719019	52.776354948561	0
355	719958	52.781354948561	0
355	721058	52.786354948561	0
355	722135	52.791354948561	0
355	723261	52.796738048039	0
355	724044	52.801738048039	0
355	724903	52.806738048039	0
355	727464	52.81854381397	0
355	728323	52.82354381397	0
355	729300	52.82854381397	0
355	730587	52.83354381397	0
355	731557	52.83854381397	0
355	732326	52.84354381397	0
355	732978	52.84854381397	0
355	733947	52.85354381397	0
355	735043	52.85854381397	0
355	736112	52.864699033941	0
355	737457	52.869699033941	0
355	738216	52.874699033941	0
355	739009	52.879699033941	0
355	740130	52.884699033941	0
355	740788	52.889699033941	0
355	741239	52.894699033941	0
355	742241	52.899699033941	0
355	743405	52.904699033941	0
355	744499	52.909699033941	0
355	745832	52.918795779787	0
355	746482	52.923795779787	0
355	747658	52.929922501957	0
355	748283	52.934922501957	0
355	749512	52.945909281842	0
355	749949	52.950909281842	0
355	750963	52.955909281842	0
355	752067	52.960909281842	0
355	753737	52.975269945268	0
355	754184	52.980269945268	0
355	754598	52.985269945268	0
355	755488	52.992451120778	0
355	756168	52.997451120778	0
355	756889	53.002451120778	0
355	757550	53.007451120778	0
355	757891	53.012451120778	0
355	758346	53.019522959822	0
355	758351	53.024522959822	0
355	758821	53.032435862784	0
355	759243	53.037435862784	0
355	760134	53.085853611116	0
355	760135	53.090853611116	0
355	760170	53.505	1
355	760180	53.51	0
355	761463	53.517390434161	27
355	762551	53.522390434161	0
355	764193	53.527390434161	0
355	765305	53.532390434161	0
355	766245	53.537390434161	0
355	767295	53.542390434161	0
355	767983	53.547390434161	0
355	768326	53.552390434161	0
355	769124	53.557390434161	0
355	770476	53.562390434161	0
355	771255	53.567390434161	0
355	771745	53.572390434161	0