version 2
run AODVScenario_1f-13-20121121-11:39:57-944
attr configname AODVScenario_1f
attr datetime 20121121-11:39:57
attr experiment AODVScenario_1f
attr inifile AODV.ini
attr iterationvars $numNodes=63
attr iterationvars2 "$numNodes=63, $repetition=0"
attr measurement $numNodes=63
attr network csma802154net
attr numNodes 63
attr processid 944
attr repetition 0
attr replication #0
attr resultdir results
attr runnumber 13
attr seedset 13

vector 263  csma802154net.dataCentricNetworkMan  RREQPacketFrequency  ETV
vector 264  csma802154net.dataCentricNetworkMan  RERRPacketFrequency  ETV
vector 265  csma802154net.dataCentricNetworkMan  DiscoveryPacketFrequency  ETV
vector 266  csma802154net.dataCentricNetworkMan  RegisterPacketFrequency  ETV
vector 267  csma802154net.dataCentricNetworkMan  RReplyPacketFrequency  ETV
vector 268  csma802154net.dataCentricNetworkMan  AODVDataPacketFrequency  ETV
vector 275  csma802154net.dataCentricNetworkMan  pendingRegistrationVector  ETV
vector 274  csma802154net.dataCentricNetworkMan  pendingRREQVector  ETV
vector 272  csma802154net.dataCentricNetworkMan  PendingDataPacketsVector  ETV
vector 284  csma802154net.fixhost[8].udpApp  "End-to-end delay"  ETV
vector 260  csma802154net.dataCentricNetworkMan  dataPacketE2EDelay  ETV
vector 285  csma802154net.fixhost[9].udpApp  "End-to-end delay"  ETV
vector 298  csma802154net.fixhost[22].udpApp  "End-to-end delay"  ETV
vector 292  csma802154net.fixhost[16].udpApp  "End-to-end delay"  ETV
vector 317  csma802154net.fixhost[41].udpApp  "End-to-end delay"  ETV
vector 277  csma802154net.fixhost[1].udpApp  "End-to-end delay"  ETV
vector 280  csma802154net.fixhost[4].udpApp  "End-to-end delay"  ETV
vector 286  csma802154net.fixhost[10].udpApp  "End-to-end delay"  ETV
vector 288  csma802154net.fixhost[12].udpApp  "End-to-end delay"  ETV
260	417464	70.008036019005	0.008036019005
260	418091	70.017236051669	0.017236051669
260	420310	71.023876081862	0.023876081862
260	421591	71.054060080817	0.054060080817
260	422242	71.065324117268	0.065324117268
260	424088	72.021036065293	0.021036065293
260	425241	72.055412090682	0.055412090682
260	425973	72.088228116852	0.088228116852
260	428146	73.028036083084	0.028036083084
260	505923	670.009636019005	0.009636019005
260	506550	670.018836051669	0.018836051669
260	508941	671.023236080817	0.023236080817
260	509268	671.025476081862	0.025476081862
260	510231	671.041644117268	0.041644117268
260	512077	672.022316065293	0.022316065293
260	513472	672.056052090682	0.056052090682
260	513808	672.059500116852	0.059500116852
260	515981	673.027076083086	0.027076083086
260	593758	1270.008356019005	0.008356019005
260	594385	1270.018196051669	0.018196051669
260	596615	1271.027076080817	0.027076080817
260	597394	1271.051324081862	0.051324081862
260	598361	1271.083492117267	0.083492117267
260	600270	1272.023596065293	0.023596065293
260	601602	1272.05736411868	0.05736411868
260	601935	1272.059852149542	0.059852149542
260	604108	1273.028996083086	0.028996083086
260	681948	1870.008356019005	0.008356019005
260	682575	1870.018196051669	0.018196051669
260	684987	1871.024516080816	0.024516080816
260	685954	1871.035244117267	0.035244117267
260	686268	1871.038060081862	0.038060081862
260	688512	1872.024196093291	0.024196093291
260	689198	1872.034004110304	0.034004110304
260	689852	1872.046844116851	0.046844116851
260	692025	1873.028996083086	0.028996083086
260	769802	2470.009316019005	0.009316019005
260	770429	2470.017876051669	0.017876051669
260	773156	2471.029244080816	0.029244080816
260	773479	2471.031804081861	0.031804081861
260	774129	2471.038196117267	0.038196117267
260	776048	2472.022316065293	0.022316065293
260	777369	2472.061452149541	0.061452149541
260	777714	2472.063620118679	0.063620118679
260	779886	2473.025796083086	0.025796083086
260	857663	3070.007396019005	0.007396019005
260	858290	3070.016596051669	0.016596051669
260	860532	3071.025156080817	0.025156080817
260	861817	3071.061420081861	0.061420081861
260	862145	3071.064860117268	0.064860117268
260	864869	3072.029596110304	0.029596110304
260	865530	3072.05004409329	0.05004409329
260	866199	3072.060812149541	0.060812149541
260	868371	3073.023236083086	0.023236083086
260	946211	3670.007396019005	0.007396019005
260	946838	3670.015956051669	0.015956051669
260	949249	3671.027076081862	0.027076081862
260	949888	3671.032124080816	0.032124080816
260	950539	3671.042924117268	0.042924117268
260	952448	3672.022636065293	0.022636065293
260	953776	3672.05288411868	0.05288411868
260	954108	3672.055124149542	0.055124149542
260	956281	3673.025476083086	0.025476083086
260	1034058	4270.008036019004	0.008036019004
260	1034685	4270.017876051668	0.017876051668
260	1036915	4271.027396080815	0.027396080815
260	1038202	4271.058924117265	0.058924117265
260	1038517	4271.06462008186	0.06462008186
260	1040437	4272.020716065292	0.020716065292
260	1041580	4272.04940409068	0.04940409068
260	1042235	4272.072692116849	0.072692116849
260	1044408	4273.025796083084	0.025796083084
260	1122185	4870.008676019005	0.008676019005
260	1122812	4870.017236051669	0.017236051669
260	1125213	4871.034756081862	0.034756081862
260	1125864	4871.046196122651	0.046196122651
260	1126515	4871.0589561504	0.0589561504
260	1128926	4872.030236121288	0.030236121288
260	1129604	4872.038196169163	0.038196169163
260	1129952	4872.042924138301	0.042924138301
260	1132124	4873.028996083086	0.028996083086
260	1209964	5470.008996019005	0.008996019005
260	1210591	5470.017556051669	0.017556051669
260	1212820	5471.024516080817	0.024516080817
260	1213781	5471.051252081862	0.051252081862
260	1214432	5471.058532117268	0.058532117268
260	1216341	5472.021036065293	0.021036065293
260	1217814	5472.056084118679	0.056084118679
260	1218155	5472.079692149541	0.079692149541
260	1220328	5473.025156083086	0.025156083086
260	1298105	6070.009956019004	0.009956019004
260	1298733	6070.022356051667	0.022356051667
260	1300900	6071.027396080817	0.027396080817
260	1301619	6071.059572081862	0.059572081862
260	1303049	6071.099668117268	0.099668117268
260	1305464	6072.033756121289	0.033756121289
260	1306152	6072.040684138302	0.040684138302
260	1306483	6072.042604169164	0.042604169164
260	1308655	6073.024516083086	0.024516083086
260	1386432	6670.008996019005	0.008996019005
260	1387059	6670.017236051669	0.017236051669
260	1389289	6671.025156080817	0.025156080817
260	1389934	6671.048444081862	0.048444081862
260	1390891	6671.059564117268	0.059564117268
260	1393303	6672.038236121287	0.038236121287
260	1393993	6672.0490761383	0.0490761383
260	1394329	6672.053804169162	0.053804169162
260	1396502	6673.028036083086	0.028036083086
260	1474342	7270.009316019005	0.009316019005
260	1474969	7270.019476051669	0.019476051669
260	1477847	7271.05253208186	0.05253208186
260	1478645	7271.060172113947	0.060172113947
260	1478972	7271.063972140286	0.063972140286
260	1481518	7272.025196065292	0.025196065292
260	1482661	7272.059252090682	0.059252090682
260	1483315	7272.082220116852	0.082220116852
260	1485487	7273.024516083086	0.024516083086
263	672	1.005	17
263	792	1.01	0
263	1479	1.015280625629	31
263	2542	1.020280625629	70
263	3705	1.025280625629	70
263	5087	1.030280625629	38
263	6185	1.035280625629	53
263	7228	1.040280625629	51
263	7922	1.045280625629	32
263	8578	1.050280625629	51
263	8990	1.055280625629	45
263	9386	1.060280625629	26
263	9612	1.065280625629	19
263	10075	1.070280625629	44
263	10487	1.075280625629	25
263	10953	1.080280625629	40
263	11481	1.085280625629	55
263	11736	1.090280625629	25
263	11737	1.095280625629	0
263	12079	1.103687219657	14
263	12080	1.108687219657	0
263	12466	1.119561426049	36
263	12699	1.124561426049	19
263	13237	1.129561426049	28
263	13385	1.134561426049	18
263	13386	1.139561426049	0
263	18862	43.505	1
263	18869	43.51	0
263	19911	43.519061721863	21
263	20876	43.524061721863	0
263	21493	43.529061721863	0
263	22013	43.534061721863	0
263	22686	43.540252498067	0
263	23392	43.545252498067	0
263	24800	43.56246925584	0
263	25413	43.56746925584	0
263	26041	43.57246925584	0
263	26644	43.57746925584	0
263	27341	43.58246925584	0
263	28002	43.58746925584	0
263	28598	43.59246925584	0
263	28891	43.59746925584	0
263	30007	43.604823345219	0
263	30466	43.609823345219	0
263	31051	43.614823345219	0
263	31820	43.624228608198	0
263	32194	43.629228608198	0
263	32575	43.634228608198	0
263	33699	43.64526898759	0
263	34430	43.65026898759	0
263	35503	43.660692546009	0
263	36006	43.665692546009	0
263	36746	43.671824346536	0
263	37053	43.676824346536	0
263	37579	43.681824346536	0
263	38026	43.686824346536	0
263	38519	43.691824346536	0
263	40255	43.712602927212	0
263	41052	43.717602927212	0
263	41408	43.722602927212	0
263	43046	43.741918237985	0
263	43473	43.746918237985	0
263	44291	43.753715566838	0
263	44797	43.758715566838	0
263	45240	43.763715566838	0
263	46140	43.775320250224	0
263	46524	43.780320250224	0
263	47114	43.785320250224	0
263	47614	43.790320250224	0
263	47929	43.807230289885	0
263	48227	43.812230289885	0
263	48300	43.817230289885	0
263	48599	43.82349258979	0
263	48829	43.82849258979	0
263	48830	43.83349258979	0
263	49042	44.505	1
263	49363	44.51	12
263	50136	44.515	0
263	50586	44.52	0
263	50977	44.525	0
263	51336	44.53	0
263	51658	44.535	0
263	52339	44.54	0
263	52858	44.545	0
263	53360	44.55	0
263	53669	44.555	0
263	53963	44.56	0
263	54767	44.571619967835	0
263	55199	44.576619967835	0
263	55505	44.581619967835	0
263	55950	44.586619967835	0
263	56335	44.591619967835	0
263	56689	44.596619967835	0
263	57774	44.612099200414	0
263	57851	44.617099200414	0
263	58431	44.622878930834	0
263	58573	44.627878930834	0
263	58793	44.634451934707	0
263	59081	44.639451934707	0
263	59087	44.644451934707	0
263	59963	44.716857191183	0
263	60254	44.721857191183	0
263	60388	45.505	1
263	60395	45.51	0
263	61258	45.519455733013	22
263	62240	45.524455733013	0
263	63090	45.529455733013	0
263	64003	45.534455733013	0
263	64474	45.539455733013	0
263	65703	45.552220483812	0
263	66253	45.557220483812	0
263	66729	45.562220483812	0
263	67331	45.567220483812	0
263	67855	45.572220483812	0
263	68474	45.577220483812	0
263	69235	45.582220483812	0
263	69605	45.587220483812	0
263	70008	45.592220483812	0
263	70522	45.597220483812	0
263	71058	45.602220483812	0
263	72121	45.61198151936	0
263	72292	45.61698151936	0
263	72898	45.62198151936	0
263	73486	45.62698151936	0
263	74989	45.640119644682	0
263	75237	45.645119644682	0
263	75895	45.650119644682	0
263	77121	45.666425905975	0
263	77508	45.671425905975	0
263	78104	45.676425905975	0
263	78874	45.685195097468	0
263	79413	45.690195097468	0
263	79859	45.695195097468	0
263	80308	45.700195097468	0
263	80909	45.705195097468	0
263	81455	45.710195097468	0
263	81763	45.715195097468	0
263	82663	45.724632480403	0
263	83110	45.729632480403	0
263	83498	45.734632480403	0
263	83657	45.739632480403	0
263	84129	45.749501093128	0
263	84417	45.754501093128	0
263	85553	45.770533683741	0
263	86246	45.775533683741	0
263	86542	45.780533683741	0
263	86850	45.788813055474	0
263	87150	45.793813055474	0
263	87964	46.505	1
263	88451	46.51	18
263	89505	46.515	0
263	90507	46.52	0
263	91246	46.525	0
263	91556	46.53	0
263	92739	46.542148604754	0
263	93440	46.547148604754	0
263	93974	46.552148604754	0
263	94611	46.557148604754	0
263	95080	46.562148604754	0
263	96486	46.571773580654	0
263	97023	46.576773580654	0
263	97577	46.581773580654	0
263	98141	46.586773580654	0
263	98625	46.591773580654	0
263	99225	46.596773580654	0
263	100009	46.601773580654	0
263	100546	46.606773580654	0
263	101102	46.611773580654	0
263	101415	46.616773580654	0
263	102026	46.621773580654	0
263	102975	46.632476989834	0
263	103523	46.637476989834	0
263	104053	46.642476989834	0
263	104798	46.647476989834	0
263	105175	46.652476989834	0
263	105486	46.657476989834	0
263	106114	46.662476989834	0
263	106807	46.667476989834	0
263	107031	46.672476989834	0
263	107398	46.678525376549	0
263	107399	46.683525376549	0
263	107788	46.693986196662	0
263	108101	46.698986196662	0
263	108670	46.703986196662	0
263	109511	46.716088422343	0
263	109903	46.721088422343	0
263	110222	46.726088422343	0
263	110462	46.731088422343	0
263	110614	46.736088422343	0
263	111172	46.742278243167	0
263	111173	46.747278243167	0
263	111550	46.763038253624	0
263	111857	46.768038253624	0
263	112084	46.773038253624	0
263	112227	47.505	1
263	112689	47.51	20
263	113531	47.515	0
263	114543	47.52	0
263	115008	47.525	0
263	115701	47.53	0
263	116104	47.535	0
263	116731	47.54	0
263	117646	47.546342110303	0
263	118326	47.551342110303	0
263	118975	47.556342110303	0
263	119530	47.561342110303	0
263	120261	47.566342110303	0
263	120881	47.571342110303	0
263	121961	47.581136044848	0
263	122577	47.586136044848	0
263	123123	47.591136044848	0
263	123568	47.596136044848	0
263	125842	47.631014549578	0
263	126437	47.636014549578	0
263	126759	47.641014549578	0
263	127450	47.646014549578	0
263	127992	47.651014549578	0
263	128313	47.656014549578	0
263	128551	47.661014549578	0
263	129032	47.666226101579	0
263	129848	47.671226101579	0
263	130436	47.676226101579	0
263	131361	47.686619797885	0
263	131442	47.691619797885	0
263	132027	47.696619797885	0
263	132345	47.701619797885	0
263	132960	47.706619797885	0
263	133755	47.711619797885	0
263	133907	47.716619797885	0
263	134292	47.730012279636	0
263	134580	47.735012279636	0
263	134894	47.740012279636	0
263	135428	47.745012279636	0
263	135809	47.750012279636	0
263	136347	47.755012279636	0
263	136791	47.760012279636	0
263	136792	47.765012279636	0
263	137522	47.785778741753	0
263	137523	47.790778741753	0
263	137825	47.809703522766	0
263	137826	47.814703522766	0
263	137969	48.505	1
263	138313	48.51	11
263	139041	48.515	0
263	139663	48.52	0
263	140570	48.525	0
263	141100	48.53	0
263	141698	48.535	0
263	142150	48.54	0
263	142454	48.545	0
263	142755	48.55	0
263	142833	48.555	0
263	143446	48.561433963534	0
263	144008	48.566433963534	0
263	144466	48.571433963534	0
263	144840	48.576433963534	0
263	145377	48.583161983659	0
263	145686	48.588161983659	0
263	146323	48.596192886311	0
263	146692	48.601192886311	0
263	147240	48.606192886311	0
263	147241	48.611192886311	0
263	147542	48.637796665836	0
263	147842	48.642796665836	0
263	148151	48.647796665836	0
263	148973	48.679812696226	0
263	149047	48.684812696226	0
263	149661	48.751738769986	0
263	149662	48.756738769986	0
263	149823	49.505	1
263	149896	49.51	0
263	150987	49.515089243718	25
263	151964	49.520089243718	0
263	153047	49.525089243718	0
263	153821	49.530089243718	0
263	154532	49.535089243718	0
263	155082	49.540089243718	0
263	155788	49.545089243718	0
263	156976	49.555794691547	0
263	157449	49.560794691547	0
263	158390	49.565794691547	0
263	158959	49.570794691547	0
263	160220	49.580404682729	0
263	160786	49.585404682729	0
263	164096	49.613467837198	0
263	164798	49.618467837198	0
263	165440	49.623467837198	0
263	165978	49.628467837198	0
263	166738	49.634614909058	0
263	167289	49.639614909058	0
263	167696	49.644614909058	0
263	168729	49.652301666881	0
263	169058	49.657301666881	0
263	169544	49.662301666881	0
263	170353	49.667301666881	0
263	170955	49.672301666881	0
263	171614	49.677425371385	0
263	172390	49.682425371385	0
263	172690	49.687425371385	0
263	173425	49.692425371385	0
263	174038	49.697425371385	0
263	174814	49.702425371385	0
263	175763	49.707425371385	0
263	176392	49.712425371385	0
263	176856	49.717425371385	0
263	177469	49.722425371385	0
263	178291	49.732476638873	0
263	178534	49.737476638873	0
263	180141	49.749388897658	0
263	180841	49.754388897658	0
263	181265	49.759388897658	0
263	181531	49.764388897658	0
263	182100	49.769388897658	0
263	182493	49.774388897658	0
263	183183	49.781159469486	0
263	183447	49.786159469486	0
263	183763	49.791159469486	0
263	184228	49.798128723394	0
263	184232	49.803128723394	0
263	184558	49.811100887138	0
263	184873	49.816100887138	0
263	185261	49.821100887138	0
263	185836	49.826100887138	0
263	185837	49.831100887138	0
263	186233	49.851722540759	0
263	186487	49.856722540759	0
263	186488	49.861722540759	0
263	186824	49.870713089268	0
263	186825	49.875713089268	0
263	187477	49.938097117781	0
263	187478	49.943097117781	0
263	187906	50.505	27
263	188779	50.51	0
263	189550	50.515	0
263	190814	50.524859969419	0
263	191218	50.529859969419	0
263	191883	50.534859969419	0
263	192996	50.539859969419	0
263	193662	50.544859969419	0
263	194560	50.549859969419	0
263	195414	50.554859969419	0
263	196448	50.564070455805	0
263	197213	50.569070455805	0
263	197971	50.574651995519	0
263	198538	50.579651995519	0
263	199457	50.584651995519	0
263	200033	50.589651995519	0
263	200692	50.594651995519	0
263	201352	50.599651995519	0
263	201757	50.604651995519	0
263	202411	50.610253920175	0
263	203257	50.615253920175	0
263	203664	50.620253920175	0
263	204158	50.625253920175	0
263	205101	50.634368453098	0
263	205700	50.639368453098	0
263	206533	50.644368958585	0
263	207117	50.649368958585	0
263	207772	50.654368958585	0
263	208024	50.659368958585	0
263	208651	50.664368958585	0
263	209201	50.669368958585	0
263	210006	50.674368958585	0
263	210658	50.679368958585	0
263	211478	50.684368958585	0
263	212341	50.689368958585	0
263	212964	50.694368958585	0
263	213480	50.699368958585	0
263	214057	50.704368958585	0
263	214692	50.71115036378	0
263	215347	50.71615036378	0
263	216306	50.724742061885	0
263	216699	50.729742061885	0
263	217189	50.734742061885	0
263	217680	50.739742061885	0
263	218280	50.745870684604	0
263	218686	50.750870684604	0
263	219261	50.755870684604	0
263	219877	50.760870684604	0
263	220355	50.765870684604	0
263	220428	50.770870684604	0
263	221008	50.779206367046	0
263	221239	50.784206367046	0
263	222123	50.792434272487	0
263	222362	50.797434272487	0
263	222751	50.802434272487	0
263	223166	50.811008100154	0
263	223423	50.816008100154	0
263	224054	50.823931503909	0
263	224055	50.828931503909	0
263	224220	51.505	1
263	224844	51.51	28
263	226200	51.515	0
263	227228	51.52	0
263	227972	51.525	0
263	228403	51.53	0
263	229144	51.535	0
263	230249	51.54	0
263	230808	51.545	0
263	231808	51.552751645989	0
263	232227	51.557751645989	0
263	233057	51.562751645989	0
263	233711	51.567751645989	0
263	234300	51.572751645989	0
263	235361	51.58187289953	0
263	236122	51.58687289953	0
263	236784	51.59187289953	0
263	237525	51.59687289953	0
263	238117	51.60187289953	0
263	238708	51.60687289953	0
263	240313	51.619066962217	0
263	240895	51.624066962217	0
263	241249	51.629066962217	0
263	241987	51.634066962217	0
263	242813	51.639066962217	0
263	243352	51.644066962217	0
263	244027	51.649984387017	0
263	244440	51.654984387017	0
263	245397	51.659984387017	0
263	245895	51.664984387017	0
263	246553	51.669984387017	0
263	248009	51.682957228805	0
263	248608	51.687957228805	0
263	249184	51.692957228805	0
263	249855	51.701010980639	0
263	250246	51.706010980639	0
263	250678	51.711010980639	0
263	251291	51.716010980639	0
263	251376	51.721010980639	0
263	252050	51.726448761299	0
263	252542	51.731448761299	0
263	253148	51.737400338512	0
263	253406	51.742400338512	0
263	253638	51.747400338512	0
263	253645	51.752472962216	0
263	253979	51.757472962216	0
263	254535	51.764400368164	0
263	255117	51.769400368164	0
263	255522	51.774400368164	0
263	255908	51.779400368164	0
263	256656	51.788345820491	0
263	256751	51.793345820491	0
263	257396	51.802700859947	0
263	257404	51.807700859947	0
263	258056	51.814488682784	0
263	258060	51.819488682784	0
263	258717	51.826784892168	0
263	258721	51.831784892168	0
263	259055	51.865688917855	0
263	259302	51.870688917855	0
263	259738	51.875688917855	0
263	259739	51.880688917855	0
263	259969	52.505	1
263	260742	52.51	34
263	262589	52.515	0
263	263592	52.52	0
263	264454	52.525	0
263	265027	52.53	0
263	265545	52.535	0
263	266636	52.541496633436	0
263	267617	52.546496633436	0
263	268446	52.551496633436	0
263	269191	52.556496633436	0
263	270560	52.566122763571	0
263	271601	52.571122763571	0
263	272399	52.576122763571	0
263	272900	52.581122763571	0
263	273429	52.586122763571	0
263	274157	52.591122763571	0
263	275267	52.596969729275	0
263	275932	52.601969729275	0
263	277006	52.609431252268	0
263	277816	52.614431252268	0
263	279291	52.624360001251	0
263	279781	52.629360001251	0
263	281579	52.646377707048	0
263	282432	52.651377707048	0
263	283581	52.656377707048	0
263	284430	52.661377707048	0
263	286357	52.677128018257	0
263	287212	52.682128018257	0
263	288217	52.689058857561	0
263	288832	52.694058857561	0
263	289558	52.699058857561	0
263	290181	52.704058857561	0
263	291670	52.712901843013	0
263	292315	52.717901843013	0
263	293060	52.722901843013	0
263	293755	52.727901843013	0
263	294797	52.732901843013	0
263	295386	52.737901843013	0
263	296316	52.742901843013	0
263	297178	52.747901843013	0
263	297617	52.752901843013	0
263	298585	52.758519792549	0
263	299336	52.763519792549	0
263	300128	52.768519792549	0
263	300832	52.773519792549	0
263	301576	52.778519792549	0
263	301930	52.783519792549	0
263	302339	52.788519792549	0
263	302842	52.793519792549	0
263	304013	52.800019882427	0
263	304867	52.805019882427	0
263	306078	52.814553025831	0
263	306504	52.819553025831	0
263	307012	52.824553025831	0
263	307338	52.829553025831	0
263	307941	52.834553025831	0
263	308574	52.839553025831	0
263	309162	52.844553025831	0
263	309675	52.849553025831	0
263	310489	52.859261374898	0
263	311066	52.864261374898	0
263	311536	52.869261374898	0
263	311683	52.874261374898	0
263	312095	52.879710566872	0
263	312882	52.884710566872	0
263	313060	52.889710566872	0
263	313467	52.896794789313	0
263	313852	52.901794789313	0
263	314019	52.906794789313	0
263	314289	52.912182634284	0
263	314626	52.917182634284	0
263	314630	52.922182634284	0
263	315296	52.937866003317	0
263	315297	52.942866003317	0
263	315529	53.505	1
263	316770	53.51	34
263	318100	53.515	0
263	319414	53.52	0
263	320642	53.525	0
263	321490	53.53	0
263	322507	53.535	0
263	323709	53.54	0
263	324645	53.545	0
263	325606	53.55	0
263	326271	53.555	0
263	327276	53.56	0
263	328191	53.565	0
263	328895	53.57	0
263	329474	53.575	0
263	330905	53.585973853181	0
263	331344	53.590973853181	0
263	331993	53.595973853181	0
263	332429	53.600973853181	0
263	332854	53.605973853181	0
263	333693	53.611178900561	0
263	334340	53.616178900561	0
263	334859	53.621178900561	0
263	336246	53.630962200796	0
263	336835	53.635962200796	0
263	338615	53.6497525988	0
263	339208	53.6547525988	0
263	339919	53.6597525988	0
263	340425	53.6647525988	0
263	342803	53.686313144411	0
263	343418	53.691313144411	0
263	344045	53.696313144411	0
263	344722	53.701313144411	0
263	346066	53.709728867776	0
263	346720	53.714728867776	0
263	346968	53.719728867776	0
263	347245	53.724728867776	0
263	347789	53.729728867776	0
263	349198	53.738996358015	0
263	350003	53.743996358015	0
263	350670	53.748996358015	0
263	351442	53.75873235313	0
263	351927	53.76373235313	0
263	352196	53.76873235313	0
263	352610	53.77373235313	0
263	353936	53.785162911122	0
263	354459	53.790162911122	0
263	355492	53.79921034704	0
263	356161	53.80421034704	0
263	356600	53.80921034704	0
263	357151	53.81421034704	0
263	358078	53.81921034704	0
263	358579	53.82421034704	0
263	359008	53.82921034704	0
263	359283	53.83421034704	0
263	359842	53.83921034704	0
263	360716	53.850068590885	0
263	360717	53.855068590885	0
263	361635	53.871295073134	0
263	361972	53.876295073134	0
263	362321	53.881295073134	0
263	362828	53.886295073134	0
263	363416	53.891295073134	0
263	363417	53.896295073134	0
263	364105	53.915727706394	0
263	364109	53.920727706394	0
263	364266	54.505	1
263	365184	54.51	34
263	366610	54.515	0
263	367739	54.52	0
263	368874	54.525	0
263	369382	54.53	0
263	370153	54.535	0
263	370978	54.54	0
263	372069	54.545188802902	0
263	372605	54.550188802902	0
263	373540	54.555188802902	0
263	374190	54.560188802902	0
263	377184	54.579016808651	0
263	377778	54.584016808651	0
263	378503	54.589016808651	0
263	379334	54.594016808651	0
263	380183	54.599016808651	0
263	380625	54.604016808651	0
263	381065	54.609016808651	0
263	381838	54.614041135063	0
263	382738	54.619041135063	0
263	383541	54.624041135063	0
263	384359	54.629041135063	0
263	385006	54.634041135063	0
263	385729	54.639041135063	0
263	386785	54.647412333211	0
263	387469	54.652412333211	0
263	388257	54.657412333211	0
263	389540	54.662412333211	0
263	390136	54.667412333211	0
263	392892	54.695947929682	0
263	393469	54.700947929682	0
263	394773	54.710457250592	0
263	395347	54.715457250592	0
263	396213	54.720457250592	0
263	396848	54.725457250592	0
263	397571	54.730457250592	0
263	398661	54.738961180959	0
263	399231	54.743961180959	0
263	400546	54.756374472037	0
263	401302	54.761374472037	0
263	402061	54.766374472037	0
263	402791	54.771374472037	0
263	403438	54.777855395784	0
263	404194	54.782855395784	0
263	404872	54.787855395784	0
263	405612	54.792855395784	0
263	405953	54.797855395784	0
263	406351	54.802855395784	0
263	406977	54.807855395784	0
263	407233	54.812855395784	0
263	407727	54.817855395784	0
263	408634	54.824151289238	0
263	408713	54.829151289238	0
263	409132	54.835407835586	0
263	409710	54.840407835586	0
263	409878	54.847170838001	0
263	410402	54.852170838001	0
263	410495	54.857170838001	0
263	411420	54.871507774328	0
263	411595	54.876507774328	0
263	411866	54.882179792666	0
263	411941	54.887179792666	0
263	412537	54.892179792666	0
263	412768	54.897179792666	0
263	413690	54.955179035987	0
263	413691	54.960179035987	0
263	413770	54.972169774327	0
263	414037	54.977169774327	0
263	414714	54.990323060753	0
263	414715	54.995323060753	0
263	417230	70.00501	0
263	417618	70.01001	0
263	417933	70.01501	0
263	418256	70.02001	0
263	418257	70.02501	0
263	418713	71.00501	0
263	419044	71.01001	0
263	419384	71.01501	0
263	419768	71.02001	0
263	420472	71.02501	0
263	420473	71.03001	0
263	421431	71.052772064956	0
263	421915	71.057772064956	0
263	422079	71.062772064956	0
263	422393	71.070324117268	0
263	422394	71.075324117268	0
263	422778	72.00501	0
263	423202	72.01001	0
263	423525	72.01501	0
263	423930	72.02001	0
263	424331	72.02501	0
263	424332	72.03001	0
263	424992	72.051532072341	0
263	425488	72.056532072341	0
263	425489	72.061532072341	0
263	425879	72.088148100339	0
263	426144	72.093148100339	0
263	426145	72.098148100339	0
263	426633	73.00501	0
263	426982	73.01001	0
263	427305	73.01501	0
263	427622	73.02001	0
263	427965	73.02501	0
263	428321	73.03001	0
263	428322	73.03501	0
263	505619	670.00501	0
263	505994	670.01001	0
263	506389	670.01501	0
263	506715	670.02001	0
263	506716	670.02501	0
263	507172	671.00501	0
263	507503	671.01001	0
263	507846	671.01501	0
263	508387	671.02001	0
263	509175	671.02501	0
263	509433	671.03001	0
263	509745	671.03501	0
263	510068	671.04001	0
263	510382	671.04501	0
263	510383	671.05001	0
263	510857	672.00501	0
263	511115	672.01001	0
263	511511	672.01501	0
263	511847	672.02001	0
263	512320	672.02501	0
263	512321	672.03001	0
263	513047	672.052172072341	0
263	513645	672.057172072341	0
263	513979	672.062172072341	0
263	513980	672.067172072341	0
263	514357	673.00501	0
263	514817	673.01001	0
263	515140	673.01501	0
263	515457	673.02001	0
263	515803	673.02501	0
263	516156	673.03001	0
263	516157	673.03501	0
263	593603	1270.00501	0
263	593912	1270.01001	0
263	594224	1270.01501	0
263	594550	1270.02001	0
263	594551	1270.02501	0
263	595007	1271.00501	0
263	595338	1271.01001	0
263	595675	1271.01501	0
263	595993	1271.02001	0
263	596452	1271.02501	0
263	596777	1271.03001	0
263	596778	1271.03501	0
263	597238	1271.050924069307	0
263	597559	1271.055924069307	0
263	597560	1271.060924069307	0
263	598195	1271.079612090223	0
263	598512	1271.084612090223	0
263	598513	1271.089612090223	0
263	598987	1272.00501	0
263	599324	1272.01001	0
263	599641	1272.01501	0
263	600106	1272.02001	0
263	600440	1272.02501	0
263	600441	1272.03001	0
263	601079	1272.047444072341	0
263	601247	1272.052444072341	0
263	601603	1272.057444072341	0
263	602106	1272.062444072341	0
263	602107	1272.067444072341	0
263	602595	1273.00501	0
263	602944	1273.01001	0
263	603267	1273.01501	0
263	603584	1273.02001	0
263	603822	1273.02501	0
263	604283	1273.03001	0
263	604284	1273.03501	0
263	681793	1870.00501	0
263	682102	1870.01001	0
263	682414	1870.01501	0
263	682740	1870.02001	0
263	682741	1870.02501	0
263	683197	1871.00501	0
263	683531	1871.01001	0
263	684021	1871.01501	0
263	684506	1871.02001	0
263	685058	1871.02501	0
263	685537	1871.03001	0
263	685860	1871.03501	0
263	686430	1871.04001	0
263	686431	1871.04501	0
263	686908	1872.00501	0
263	687314	1872.01001	0
263	687719	1872.01501	0
263	688344	1872.02001	0
263	688682	1872.02501	0
263	688755	1872.03001	0
263	689368	1872.035204108308	0
263	689373	1872.040204108308	0
263	690020	1872.047404100339	0
263	690024	1872.052404100339	0
263	690331	1873.00501	0
263	690771	1873.01001	0
263	691105	1873.01501	0
263	691411	1873.02001	0
263	691739	1873.02501	0
263	692200	1873.03001	0
263	692201	1873.03501	0
263	769498	2470.00501	0
263	769953	2470.01001	0
263	770268	2470.01501	0
263	770594	2470.02001	0
263	770595	2470.02501	0
263	771051	2471.00501	0
263	771382	2471.01001	0
263	771722	2471.01501	0
263	772037	2471.02001	0
263	772675	2471.02501	0
263	773318	2471.03001	0
263	773873	2471.03501	0
263	774280	2471.04001	0
263	774281	2471.04501	0
263	774755	2472.00501	0
263	775089	2472.01001	0
263	775409	2472.01501	0
263	775745	2472.02001	0
263	776218	2472.02501	0
263	776219	2472.03001	0
263	776857	2472.052172072341	0
263	777095	2472.057172072341	0
263	777537	2472.062172072341	0
263	777884	2472.067172072341	0
263	777885	2472.072172072341	0
263	778262	2473.00501	0
263	778725	2473.01001	0
263	779048	2473.01501	0
263	779434	2473.02001	0
263	779777	2473.02501	0
263	780061	2473.03001	0
263	780062	2473.03501	0
263	857511	3070.00501	0
263	857820	3070.01001	0
263	858132	3070.01501	0
263	858455	3070.02001	0
263	858456	3070.02501	0
263	858819	3071.00501	0
263	859243	3071.01001	0
263	859583	3071.01501	0
263	859967	3071.02001	0
263	860442	3071.02501	0
263	860694	3071.03001	0
263	860695	3071.03501	0
263	861325	3071.054052069307	0
263	861652	3071.059052069307	0
263	862051	3071.064052069307	0
263	862296	3071.069052069307	0
263	862297	3071.074052069307	0
263	862774	3072.00501	0
263	863111	3072.01001	0
263	863434	3072.01501	0
263	863758	3072.02001	0
263	864286	3072.02501	0
263	864940	3072.03001	0
263	865040	3072.03501	0
263	865700	3072.051564100339	0