file 267766 1353023962                                          
version 2
run AODVScenario_1f-24-20121115-23:58:56-3124
attr configname AODVScenario_1f
attr datetime 20121115-23:58:56
attr experiment AODVScenario_1f
attr inifile AODV.ini
attr iterationvars $numNodes=74
attr iterationvars2 "$numNodes=74, $repetition=0"
attr measurement $numNodes=74
attr network csma802154net
attr numNodes 74
attr processid 3124
attr repetition 0
attr replication #0
attr resultdir results
attr runnumber 24
attr seedset 24

vector 307  csma802154net.dataCentricNetworkMan  RREQPacketFrequency  ETV
vector 308  csma802154net.dataCentricNetworkMan  RERRPacketFrequency  ETV
vector 309  csma802154net.dataCentricNetworkMan  DiscoveryPacketFrequency  ETV
vector 310  csma802154net.dataCentricNetworkMan  RegisterPacketFrequency  ETV
vector 311  csma802154net.dataCentricNetworkMan  RReplyPacketFrequency  ETV
vector 312  csma802154net.dataCentricNetworkMan  AODVDataPacketFrequency  ETV
vector 319  csma802154net.dataCentricNetworkMan  pendingRegistrationVector  ETV
vector 318  csma802154net.dataCentricNetworkMan  pendingRREQVector  ETV
vector 316  csma802154net.dataCentricNetworkMan  PendingDataPacketsVector  ETV
vector 322  csma802154net.fixhost[2].udpApp  "End-to-end delay"  ETV
vector 304  csma802154net.dataCentricNetworkMan  dataPacketE2EDelay  ETV
vector 328  csma802154net.fixhost[8].udpApp  "End-to-end delay"  ETV
vector 321  csma802154net.fixhost[1].udpApp  "End-to-end delay"  ETV
vector 324  csma802154net.fixhost[4].udpApp  "End-to-end delay"  ETV
vector 327  csma802154net.fixhost[7].udpApp  "End-to-end delay"  ETV
vector 332  csma802154net.fixhost[12].udpApp  "End-to-end delay"  ETV
vector 343  csma802154net.fixhost[23].udpApp  "End-to-end delay"  ETV
vector 347  csma802154net.fixhost[27].udpApp  "End-to-end delay"  ETV
vector 330  csma802154net.fixhost[10].udpApp  "End-to-end delay"  ETV
vector 337  csma802154net.fixhost[17].udpApp  "End-to-end delay"  ETV
vector 313  csma802154net.dataCentricNetworkMan  AODVDataLineBreakVector  ETV
304	2021 5882 617193 2040541 70.031836114705 7273.016596042864 130 0.007396023042 3.20171649253 7.505687947769 10.704453834758
307	7903 40193 597 2040727 1.005 7273.02501 1386 0 87 2465 102187
308	48096 40121 597 2040727 1.005 7273.02501 1386 0 0 0 0
309	88217 40121 597 2040727 1.005 7273.02501 1386 0 0 0 0
310	128338 40121 597 2040727 1.005 7273.02501 1386 0 1 12 12
311	168459 40140 597 2040727 1.005 7273.02501 1386 0 82 1847 51047
312	208599 40148 597 2040727 1.005 7273.02501 1386 0 80 1374 37588
313	248747 99 1132370 1276894 3070.191274053527 3670.248509780514 3 1 3 6 14
316	248846 11110 614200 2040541 70 7273.016596042864 364 0 4 410 762
318	259956 1404 22112 1476077 43.50001 4270.116506209175 49 0 2 23 25
319	261360 524 22107 554224 43.5 54.5 22 0 2 23 35
321	261884 585 619350 2032635 70.084140078208 7270.041972076178 13 0.024836078209 0.44503426208 1.237707809269 0.34547039000038
322	262469 589 617193 2031747 70.031836114705 7270.032156092935 13 0.031836114705 3.20171649253 3.700221724431 10.273571064067
324	263058 583 620676 2034763 71.014076031228 7271.015676031259 13 0.011516031228 0.015676031259 0.167948405095 0.0021917674771815
327	263641 591 621446 2035531 71.069996068327 7271.023596068358 13 0.019756068358 0.069996068327 0.330748887381 0.010588150968959
328	264232 591 618783 2033432 70.059532122835 7270.061132103307 13 0.020076061349 0.066252103307 0.59125340426 0.029802920921254
330	264823 583 625693 2040165 73.007396023042 7273.011516023619 13 0.007396023042 0.01471602362 0.137188303011 0.0015209166984839
332	265406 591 623186 2037269 72.016916047477 7272.018516047913 13 0.015636053799 0.045180047914 0.282516626139 0.007013456874796
337	265997 591 626069 2040541 73.012796042288 7273.016596042864 13 0.012796042288 0.019796042865 0.199388553207 0.003130079271573
343	266588 591 623976 2038060 72.023844071497 7272.029604071933 13 0.020076071934 0.052252071492 0.389084938395 0.012896544962082
347	267179 587 624762 2038846 72.03244409905 7272.036604099486 13 0.027076099487 0.058612099487 0.469629296581 0.018268543516877
