version 2
run AODVScenario_1f-45-20121119-16:16:03-2044
attr configname AODVScenario_1f
attr datetime 20121119-16:16:03
attr experiment AODVScenario_1f
attr inifile AODV.ini
attr iterationvars $numNodes=95
attr iterationvars2 "$numNodes=95, $repetition=0"
attr measurement $numNodes=95
attr network csma802154net
attr numNodes 95
attr processid 2044
attr repetition 0
attr replication #0
attr resultdir results
attr runnumber 45
attr seedset 45

vector 391  csma802154net.dataCentricNetworkMan  RREQPacketFrequency  ETV
vector 392  csma802154net.dataCentricNetworkMan  RERRPacketFrequency  ETV
vector 393  csma802154net.dataCentricNetworkMan  DiscoveryPacketFrequency  ETV
vector 394  csma802154net.dataCentricNetworkMan  RegisterPacketFrequency  ETV
vector 395  csma802154net.dataCentricNetworkMan  RReplyPacketFrequency  ETV
vector 396  csma802154net.dataCentricNetworkMan  AODVDataPacketFrequency  ETV
vector 403  csma802154net.dataCentricNetworkMan  pendingRegistrationVector  ETV
vector 402  csma802154net.dataCentricNetworkMan  pendingRREQVector  ETV
vector 400  csma802154net.dataCentricNetworkMan  PendingDataPacketsVector  ETV
vector 409  csma802154net.fixhost[5].udpApp  "End-to-end delay"  ETV
vector 388  csma802154net.dataCentricNetworkMan  dataPacketE2EDelay  ETV
vector 412  csma802154net.fixhost[8].udpApp  "End-to-end delay"  ETV
vector 410  csma802154net.fixhost[6].udpApp  "End-to-end delay"  ETV
vector 414  csma802154net.fixhost[10].udpApp  "End-to-end delay"  ETV
vector 405  csma802154net.fixhost[1].udpApp  "End-to-end delay"  ETV
vector 418  csma802154net.fixhost[14].udpApp  "End-to-end delay"  ETV
vector 417  csma802154net.fixhost[13].udpApp  "End-to-end delay"  ETV
vector 416  csma802154net.fixhost[12].udpApp  "End-to-end delay"  ETV
vector 420  csma802154net.fixhost[16].udpApp  "End-to-end delay"  ETV
388	1094222	70.017876043746	0.017876043746
388	1094690	70.019724052011	0.019724052011
388	1097403	71.028396075291	0.028396075291
388	1098329	71.042044098078	0.042044098078
388	1102432	72.040196086443	0.040196086443
388	1102914	72.106644110458	0.106644110458
388	1106335	73.027076108423	0.027076108423
388	1107304	73.045644063548	0.045644063548
388	1109576	73.082500137182	0.082500137182
388	1228223	670.041484043747	0.041484043747
388	1228696	670.04493205201	0.04493205201
388	1231409	671.020076075291	0.020076075291
388	1232333	671.027964098078	0.027964098078
388	1235921	672.034076117639	0.034076117639
388	1236916	672.041076141913	0.041076141913
388	1239122	673.017556063548	0.017556063548
388	1240874	673.033084108423	0.033084108423
388	1242381	673.069380137181	0.069380137181
388	1360595	1270.016596052011	0.016596052011
388	1361724	1270.042764043747	0.042764043747
388	1364447	1271.021996075291	0.021996075291
388	1365371	1271.029564098078	0.029564098078
388	1368683	1272.023876086444	0.023876086444
388	1370153	1272.05352411046	0.05352411046
388	1373574	1273.026436108423	0.026436108423
388	1374544	1273.043084063548	0.043084063548
388	1376079	1273.058892137182	0.058892137182
388	1494393	1870.019796043747	0.019796043747
388	1494867	1870.026124052011	0.026124052011
388	1497583	1871.02263607529	0.02263607529
388	1498504	1871.028924098078	0.028924098078
388	1502095	1872.03535611764	0.03535611764
388	1503087	1872.042996141914	0.042996141914
388	1506252	1873.025412063548	0.025412063548
388	1507315	1873.033436139619	0.033436139619
388	1508342	1873.03915616941	0.03915616941
388	1626556	2470.017876052011	0.017876052011
388	1628352	2470.068860043747	0.068860043747
388	1631074	2471.020076075291	0.020076075291
388	1632702	2471.050684098078	0.050684098078
388	1636293	2472.03343611764	0.03343611764
388	1637279	2472.040116141913	0.040116141913
388	1639935	2473.017236063548	0.017236063548
388	1641942	2473.034716139619	0.034716139619
388	1642973	2473.04299616941	0.04299616941
388	1761188	3070.016916052011	0.016916052011
388	1761656	3070.020044043746	0.020044043746
388	1765289	3071.04745207529	0.04745207529
388	1765767	3071.055412098077	0.055412098077
388	1769355	3072.03375611764	0.03375611764
388	1770350	3072.041716141912	0.041716141912
388	1773509	3073.022284063547	0.022284063547
388	1775099	3073.03307616941	0.03307616941
388	1775622	3073.036492139619	0.036492139619
388	1893914	3670.018836052011	0.018836052011
388	1895016	3670.067332043747	0.067332043747
388	1898844	3671.027396098078	0.027396098078
388	1899368	3671.049124075291	0.049124075291
388	1902936	3672.028636117639	0.028636117639
388	1903931	3672.035956141912	0.035956141912
388	1906612	3673.018836063548	0.018836063548
388	1907868	3673.026116108423	0.026116108423
388	1909374	3673.053204137181	0.053204137181
388	2027589	4270.01947605201	0.01947605201
388	2028058	4270.025484043745	0.025484043745
388	2031207	4271.025796098077	0.025796098077
388	2031729	4271.033372075289	0.033372075289
388	2034827	4272.032196086442	0.032196086442
388	2036290	4272.044244110458	0.044244110458
388	2038692	4273.021076063548	0.021076063548
388	2040713	4273.059604139619	0.059604139619
388	2041744	4273.068132169409	0.068132169409
388	2159962	4870.020116043747	0.020116043747
388	2161116	4870.04845205201	0.04845205201
388	2163828	4871.018796075291	0.018796075291
388	2164753	4871.028604098077	0.028604098077
388	2168340	4872.02959611764	0.02959611764
388	2169335	4872.037876141914	0.037876141914
388	2171539	4873.013716063548	0.013716063548
388	2174294	4873.052212108423	0.052212108423
388	2175321	4873.059780137182	0.059780137182
388	2294063	5470.044684043747	0.044684043747
388	2294536	5470.049412052011	0.049412052011
388	2297249	5471.02359607529	0.02359607529
388	2298174	5471.034364098077	0.034364098077
388	2301762	5472.033756117639	0.033756117639
388	2302757	5472.041716141913	0.041716141913
388	2305546	5473.022604063546	0.022604063546
388	2306702	5473.030204108422	0.030204108422
388	2308208	5473.055764137181	0.055764137181
388	2426422	6070.019156052011	0.019156052011
388	2427551	6070.045964043747	0.045964043747
388	2430700	6071.027076098078	0.027076098078
388	2431223	6071.037532075291	0.037532075291
388	2434794	6072.027396086444	0.027396086444
388	2435785	6072.033364110459	0.033364110459
388	2438467	6073.019156063548	0.019156063548
388	2440002	6073.028636139619	0.028636139619
388	2441033	6073.03780416941	0.03780416941
388	2559252	6670.017556043747	0.017556043747
388	2559726	6670.021324052011	0.021324052011
388	2562635	6671.021676075291	0.021676075291
388	2563564	6671.051324098078	0.051324098078
388	2566877	6672.026116086444	0.026116086444
388	2568348	6672.05480411046	0.05480411046
388	2571505	6673.023244063548	0.023244063548
388	2572569	6673.031836139618	0.031836139618
388	2573596	6673.038836169408	0.038836169408
388	2691909	7270.017876043746	0.017876043746
388	2693059	7270.04372405201	0.04372405201
388	2695771	7271.019756075291	0.019756075291
388	2696696	7271.028604098078	0.028604098078
388	2699814	7272.024836086442	0.024836086442
388	2701274	7272.034324110457	0.034324110457
388	2703956	7273.021396063546	0.021396063546
388	2705213	7273.028036108421	0.028036108421
388	2706719	7273.05768413718	0.05768413718
391	863	1.005	1
391	1021	1.01	20
391	1530	1.015	74
391	3190	1.02	54
391	5183	1.025	86
391	7602	1.03	47
391	9922	1.035	52
391	11508	1.04	81
391	13153	1.045	61
391	14767	1.05	83
391	15746	1.055	73
391	16780	1.06	42
391	17846	1.065	94
391	18817	1.07	74
391	19781	1.075	43
391	21076	1.08	80
391	21765	1.085	35
391	22394	1.09	25
391	22404	1.095	0
391	22919	1.102268377578	18
391	23291	1.107268377578	35
391	23846	1.112268377578	52
391	24285	1.117268377578	49
391	24600	1.122268377578	45
391	25029	1.127268377578	47
391	25039	1.132268377578	0
391	25714	1.139315178553	57
391	26150	1.144315178553	49
391	26583	1.149315178553	47
391	26584	1.154315178553	0
391	27038	1.216903647329	52
391	27039	1.221903647329	0
391	35299	43.505	1
391	35755	43.51	43
391	37297	43.515	0
391	39234	43.52	0
391	40891	43.525	0
391	42502	43.533268208536	0
391	43268	43.538268208536	0
391	44373	43.543268208536	0
391	45876	43.549842198019	0
391	47183	43.554842198019	0
391	48037	43.559842198019	0
391	49064	43.564842198019	0
391	50111	43.569842198019	0
391	51136	43.574842198019	0
391	52624	43.582362132713	0
391	53129	43.587362132713	0
391	54149	43.592362132713	0
391	57894	43.610979996887	0
391	59102	43.615979996887	0
391	60026	43.620979996887	0
391	63807	43.638477004882	0
391	64689	43.643477004882	0
391	69840	43.673861018786	0
391	70901	43.678861018786	0
391	71758	43.683861018786	0
391	73019	43.690366849599	0
391	74127	43.695366849599	0
391	75347	43.702605062532	0
391	76192	43.707605062532	0
391	77547	43.716268033139	0
391	78556	43.721268033139	0
391	79290	43.726268033139	0
391	80507	43.731268033139	0
391	81553	43.736268033139	0
391	82875	43.741268033139	0
391	84011	43.746268033139	0
391	85076	43.751268033139	0
391	85754	43.756268033139	0
391	86718	43.761268033139	0
391	87731	43.766268033139	0
391	88903	43.771738074612	0
391	90069	43.776738074612	0
391	90877	43.781738074612	0
391	92956	43.798048444982	0
391	93547	43.803048444982	0
391	94320	43.808048444982	0
391	95004	43.813048444982	0
391	96058	43.81839042892	0
391	96907	43.82339042892	0
391	97641	43.82839042892	0
391	98466	43.83339042892	0
391	99368	43.83839042892	0
391	100364	43.84339042892	0
391	101099	43.851815621282	0
391	101205	43.856815621282	0
391	102068	43.862440518575	0
391	102865	43.867440518575	0
391	104041	43.874915513501	0
391	105049	43.879915513501	0
391	105862	43.88682283936	0
391	106421	43.89182283936	0
391	107347	43.898899280296	0
391	108026	43.903899280296	0
391	108820	43.911404636456	0
391	109297	43.916404636456	0
391	109871	43.921404636456	0
391	110351	43.926404636456	0
391	111209	43.931404636456	0
391	111695	43.937372266139	0
391	111943	43.942372266139	0
391	111944	43.947372266139	0
391	112871	43.962255780405	0
391	113360	43.967255780405	0
391	113361	43.972255780405	0
391	114012	43.98061463137	0
391	114260	43.98561463137	0
391	115708	44.008576641945	0
391	115854	44.013576641945	0
391	117662	44.505	36
391	119026	44.51	0
391	120566	44.515	0
391	122136	44.520359439377	0
391	122941	44.525359439377	0
391	123905	44.530359439377	0
391	124829	44.535359439377	0
391	126194	44.540961939094	0
391	127329	44.545961939094	0
391	128054	44.550961939094	0
391	129206	44.555961939094	0
391	130347	44.560961939094	0
391	131473	44.565961939094	0
391	132612	44.571955036418	0
391	133457	44.576955036418	0
391	134406	44.581955036418	0
391	135226	44.586955036418	0
391	136064	44.591955036418	0
391	137535	44.598121985608	0
391	138771	44.603121985608	0
391	140227	44.610298616598	0
391	141121	44.615298616598	0
391	142140	44.620298616598	0
391	143373	44.625298616598	0
391	144236	44.630298616598	0
391	146699	44.645664381129	0
391	147700	44.650664381129	0
391	148407	44.655664381129	0
391	149452	44.660664381129	0
391	150298	44.665664381129	0
391	150760	44.670664381129	0
391	154874	44.693843029457	0
391	155904	44.698843029457	0
391	156877	44.703843029457	0
391	157703	44.709159565992	0
391	158394	44.714159565992	0
391	159647	44.721848866218	0
391	160378	44.726848866218	0
391	161331	44.731848866218	0
391	161921	44.736937768353	0
391	162701	44.741937768353	0
391	163472	44.746937768353	0
391	164396	44.751937768353	0
391	165144	44.756937768353	0
391	165753	44.761937768353	0
391	166998	44.766937768353	0
391	167922	44.771937768353	0
391	168707	44.776937768353	0
391	169623	44.781937768353	0
391	170474	44.786937768353	0
391	171400	44.791937768353	0
391	172351	44.796937768353	0
391	173954	44.808156878468	0
391	174509	44.813156878468	0
391	175329	44.822275492587	0
391	176362	44.827275492587	0
391	177028	44.832275492587	0
391	179050	44.850583461944	0
391	180000	44.855583461944	0
391	180739	44.860583461944	0
391	181130	44.865583461944	0
391	181612	44.870583461944	0
391	182086	44.875583461944	0
391	182885	44.880583461944	0
391	183254	44.885583461944	0
391	183359	44.890583461944	0
391	184262	44.896483777077	0
391	184948	44.901483777077	0
391	185155	44.906483777077	0
391	185978	44.915339435063	0
391	185979	44.920339435063	0
391	186923	44.928890875541	0
391	186924	44.933890875541	0
391	187378	44.987355800208	0
391	187379	44.992355800208	0
391	187577	45.505	1
391	187587	45.51	0
391	189365	45.517684934517	39
391	191337	45.522684934517	0
391	193109	45.527684934517	0
391	193996	45.532684934517	0
391	195773	45.543461985739	0
391	196992	45.548461985739	0
391	197906	45.553461985739	0
391	200710	45.565516355585	0
391	201745	45.570516355585	0
391	203536	45.581283280181	0
391	204433	45.586283280181	0
391	205561	45.591412454305	0
391	206439	45.596412454305	0
391	207868	45.604069316193	0
391	208802	45.609069316193	0
391	209676	45.614069316193	0
391	210513	45.619069316193	0
391	211532	45.624069316193	0
391	213638	45.636502461904	0
391	214684	45.641502461904	0
391	215530	45.646502461904	0
391	216863	45.651502461904	0
391	218756	45.660082288235	0
391	219440	45.665082288235	0
391	221639	45.678593559357	0
391	223019	45.683593559357	0
391	224035	45.688593559357	0
391	225396	45.695136029808	0
391	226347	45.700136029808	0
391	227036	45.705136029808	0
391	228072	45.710136029808	0
391	229456	45.718458429792	0
391	230308	45.723458429792	0
391	231558	45.728458429792	0
391	232304	45.733458429792	0
391	233407	45.738616549157	0
391	234271	45.743616549157	0
391	235347	45.748616549157	0
391	236296	45.753616549157	0
391	237102	45.758616549157	0
391	237703	45.763616549157	0
391	238362	45.768616549157	0
391	239180	45.773616549157	0
391	242048	45.790860441869	0
391	242630	45.795860441869	0
391	244095	45.801369326333	0
391	245031	45.806369326333	0
391	245940	45.811369326333	0
391	246303	45.816369326333	0
391	247470	45.822413354233	0
391	248487	45.827413354233	0
391	249319	45.832413354233	0
391	252162	45.8470711699	0
391	253008	45.8520711699	0
391	253818	45.8570711699	0
391	255048	45.863557142554	0
391	255858	45.868557142554	0
391	256722	45.873557142554	0
391	257308	45.878557142554	0
391	258271	45.883557142554	0
391	258740	45.888557142554	0
391	259545	45.893557142554	0
391	260038	45.905249247637	0
391	260040	45.910249247637	0
391	261194	45.927283138594	0
391	261195	45.932283138594	0
391	262112	45.945946308429	0
391	262113	45.950946308429	0
391	262596	45.978894348601	0
391	262597	45.983894348601	0
391	263075	45.993387148191	0
391	263076	45.998387148191	0
391	263384	46.505	1
391	265204	46.51	51
391	267056	46.515	0
391	268607	46.52	0
391	270209	46.525	0
391	272531	46.536088689958	0
391	273944	46.541088689958	0
391	274867	46.546088689958	0
391	277411	46.55762695838	0
391	278352	46.56262695838	0
391	280732	46.571993619953	0
391	282033	46.576993619953	0
391	284570	46.589137635551	0
391	285518	46.594137635551	0
391	287412	46.601416715584	0
391	288666	46.606416715584	0
391	289478	46.611416715584	0
391	291611	46.621918974183	0
391	292365	46.626918974183	0
391	293547	46.631918974183	0
391	294485	46.637049641424	0
391	295782	46.642049641424	0
391	296946	46.649865320862	0
391	297683	46.654865320862	0
391	298614	46.659865320862	0
391	299673	46.664865320862	0
391	300520	46.669865320862	0
391	301273	46.674865320862	0
391	303983	46.690768929751	0
391	304850	46.695768929751	0
391	305842	46.700768929751	0
391	308540	46.711475961155	0
391	309464	46.716475961155	0
391	312917	46.734865164377	0
391	314222	46.739865164377	0
391	315845	46.7479033132	0
391	317380	46.7529033132	0
391	318468	46.7579033132	0
391	319644	46.7629033132	0
391	320800	46.7679033132	0
391	322149	46.7729033132	0
391	323661	46.7779033132	0
391	324516	46.7829033132	0
391	325830	46.788915420345	0
391	326641	46.793915420345	0
391	327668	46.798915420345	0
391	328580	46.803915420345	0
391	329771	46.810345241686	0
391	331087	46.815345241686	0
391	332106	46.820345241686	0
391	333089	46.825345241686	0
391	333707	46.830345241686	0
391	335016	46.835345241686	0
391	336578	46.844920964784	0
391	337507	46.849920964784	0
391	338387	46.854920964784	0
391	339445	46.860018439567	0
391	340019	46.865018439567	0
391	341448	46.873754595856	0
391	342411	46.878754595856	0
391	343443	46.883754595856	0
391	344119	46.888754595856	0
391	344848	46.893754595856	0
391	345879	46.898754595856	0
391	347144	46.907957535707	0
391	348200	46.912957535707	0
391	349315	46.917957535707	0
391	350006	46.922957535707	0
391	350944	46.927957535707	0
391	351842	46.933029371643	0
391	352618	46.938029371643	0
391	353845	46.94672558311	0
391	354516	46.95172558311	0
391	357138	46.969344416124	0
391	357731	46.974344416124	0
391	358190	46.979344416124	0
391	359396	46.98693135172	0
391	360020	46.99193135172	0
391	360728	46.99693135172	0
391	362334	47.00193135172	0
391	362984	47.00693135172	0
391	364317	47.020523424026	0
391	365189	47.025523424026	0
391	365196	47.030523424026	0
391	366037	47.037976188793	0
391	366665	47.042976188793	0
391	366876	47.047976188793	0
391	368133	47.074049362473	0
391	368137	47.079049362473	0
391	368144	47.505	1
391	368151	47.51	0
391	369991	47.519101165544	39
391	371840	47.524101165544	0
391	373141	47.529101165544	0
391	374798	47.534101165544	0
391	375305	47.539101165544	0
391	376569	47.544101165544	0
391	377668	47.549101165544	0
391	379071	47.554101165544	0
391	380540	47.559101165544	0
391	381487	47.564101165544	0
391	382479	47.569101165544	0
391	383466	47.574101165544	0
391	384929	47.579101165544	0
391	385758	47.584101165544	0
391	387175	47.593231454225	0
391	388197	47.598231454225	0
391	388997	47.603231454225	0
391	389831	47.609219034959	0
391	390923	47.614219034959	0
391	391965	47.619219034959	0
391	393637	47.62956816862	0
391	394354	47.63456816862	0
391	395511	47.640237887377	0
391	396244	47.645237887377	0
391	397091	47.650237887377	0
391	399414	47.662061428504	0
391	400473	47.667061428504	0
391	401097	47.672061428504	0
391	402176	47.679883082056	0
391	403110	47.684883082056	0
391	403957	47.692432237813	0
391	405002	47.697432237813	0
391	405860	47.702432237813	0
391	406586	47.707432237813	0
391	407599	47.714303484332	0
391	408557	47.719303484332	0
391	409380	47.724303484332	0
391	410753	47.733813144952	0
391	411635	47.738813144952	0
391	412267	47.744659097962	0
391	412980	47.749659097962	0
391	413802	47.754659097962	0
391	414849	47.760603922338	0
391	415530	47.765603922338	0
391	416365	47.772083932127	0
391	417157	47.777083932127	0
391	418495	47.785531144952	0
391	419080	47.790531144952	0
391	420278	47.800260545556	0
391	421531	47.805260545556	0
391	422253	47.810260545556	0
391	422729	47.815260545556	0
391	426046	47.835951509022	0
391	426953	47.840951509022	0
391	427670	47.845951509022	0
391	428138	47.850951509022	0
391	428832	47.855951509022	0
391	429793	47.860951509022	0
391	430272	47.865951509022	0
391	431697	47.880030242123	0
391	432045	47.885030242123	0
391	432797	47.89103302758	0
391	433037	47.89603302758	0
391	434006	47.901726413307	0
391	434621	47.906726413307	0
391	434729	47.911726413307	0
391	436544	47.92739308589	0
391	437106	47.93239308589	0
391	437240	47.93739308589	0
391	438234	47.947147945649	0
391	438746	47.952147945649	0
391	439409	47.957147945649	0
391	439892	47.964922701678	0
391	439893	47.969922701678	0
391	440367	47.984803969065	0
391	440368	47.989803969065	0
391	440572	48.505	1
391	441258	48.51	57
391	443907	48.515	0
391	445949	48.52	0
391	447317	48.525	0
391	451761	48.54142713244	0
391	453102	48.54642713244	0
391	454593	48.55142713244	0
391	456044	48.55642713244	0
391	457224	48.56142713244	0
391	459331	48.569430734501	0
391	460691	48.574430734501	0
391	461298	48.579430734501	0
391	462461	48.584430734501	0
391	463847	48.589430734501	0
391	465503	48.594430734501	0
391	466807	48.601125152266	0
391	468107	48.606125152266	0
391	469066	48.611125152266	0
391	470064	48.616125152266	0
391	471300	48.621125152266	0
391	472132	48.626125152266	0
391	473410	48.631125152266	0
391	476539	48.643637995677	0
391	477470	48.648637995677	0
391	478700	48.653637995677	0
391	479894	48.658637995677	0
391	481079	48.663637995677	0
391	486926	48.694563137086	0
391	487972	48.699563137086	0
391	488934	48.704563137086	0
391	489868	48.709563137086	0
391	491511	48.716448409081	0
391	493051	48.721448409081	0
391	494707	48.728794903221	0
391	495990	48.733794903221	0
391	496940	48.738794903221	0
391	498042	48.743794903221	0
391	499465	48.748794903221	0
391	501921	48.761313360814	0
391	502938	48.766313360814	0
391	504219	48.771313360814	0
391	505543	48.776818402843	0
391	506495	48.781818402843	0
391	507676	48.786818402843	0
391	508960	48.791818402843	0
391	510846	48.802779812325	0
391	511647	48.807779812325	0
391	513283	48.815829579537	0
391	514150	48.820829579537	0
391	515193	48.825829579537	0
391	516592	48.833008500826	0
391	517971	48.838008500826	0
391	518690	48.843008500826	0
391	519870	48.848233542916	0
391	521181	48.853233542916	0
391	522497	48.860748854387	0
391	523517	48.865748854387	0
391	524501	48.871242841731	0
391	525101	48.876242841731	0
391	526154	48.881242841731	0
391	527119	48.886242841731	0
391	527804	48.891242841731	0
391	528847	48.896242841731	0
391	529701	48.901242841731	0
391	530446	48.906242841731	0
391	531659	48.911738479827	0
391	532951	48.916738479827	0
391	534252	48.921738479827	0
391	534975	48.926738479827	0
391	535481	48.931738479827	0
391	536451	48.936738479827	0
391	537319	48.941738479827	0
391	537900	48.946738479827	0
391	539712	48.956254996837	0
391	540765	48.961254996837	0
391	541792	48.968349719567	0
391	542863	48.973349719567	0
391	543381	48.978349719567	0
391	544195	48.983349719567	0
391	545301	48.988349719567	0
391	545821	48.993349719567	0
391	546533	48.998349719567	0
391	547804	49.007512235373	0
391	548327	49.012512235373	0
391	549257	49.017512235373	0
391	549869	49.022512235373	0
391	550596	49.029231351307	0
391	550985	49.034231351307	0
391	550986	49.039231351307	0
391	551489	49.054034242451	0
391	551493	49.059034242451	0
391	552006	49.067008797991	0
391	552007	49.072008797991	0
391	552902	49.138008804151	0
391	553038	49.143008804151	0
391	553497	49.505	1
391	553507	49.51	0
391	554663	49.518279587946	16
391	555803	49.523279587946	0
391	556384	49.528279587946	0
391	557073	49.533279587946	0
391	557977	49.538279587946	0
391	559519	49.543279587946	0
391	560389	49.548279587946	0
391	561307	49.553279587946	0
391	561784	49.558279587946	0
391	562484	49.563279587946	0
391	563819	49.568279587946	0
391	565038	49.573279587946	0
391	566617	49.584768440762	0
391	566618	49.589768440762	0
391	568325	49.601927619038	0
391	569220	49.606927619038	0
391	570172	49.61195286121	0
391	570634	49.61695286121	0
391	571904	49.623585035843	0
391	572363	49.628585035843	0
391	573313	49.633585035843	0
391	573788	49.638585035843	0
391	574445	49.643585035843	0
391	575487	49.648585035843	0
391	575933	49.653585035843	0
391	576788	49.659299621752	0
391	577683	49.664299621752	0
391	577789	49.669299621752	0
391	578226	49.67562782115	0
391	578855	49.68062782115	0
391	579209	49.68562782115	0
391	580072	49.690801064674	0
391	580073	49.695801064674	0
391	580551	49.720404770625	0
391	580558	49.725404770625	0
391	581427	49.737941723872	0
391	581428	49.742941723872	0
391	581771	50.505	1
391	583775	50.51	59
391	586520	50.515	0
391	588178	50.52	0
391	590045	50.525884783784	0
391	591050	50.530884783784	0
391	592235	50.535884783784	0
391	594023	50.540884783784	0
391	598326	50.557148722324	0
391	599795	50.562148722324	0
391	601277	50.567148722324	0
391	602642	50.572148722324	0
391	604258	50.577148722324	0
391	605973	50.582148722324	0
391	608920	50.595246094621	0
391	610410	50.600246094621	0
391	611922	50.605246094621	0
391	613122	50.610246094621	0
391	615260	50.620261399836	0
391	616250	50.625261399836	0
391	618326	50.632837536894	0
391	619814	50.637837536894	0
391	622536	50.64810864063	0
391	623490	50.65310864063	0
391	626195	50.664321059905	0
391	627479	50.669321059905	0
391	628520	50.674321059905	0
391	629478	50.679321059905	0
391	631503	50.689034156005	0
391	633218	50.694034156005	0
391	635041	50.703354975865	0
391	636389	50.708354975865	0
391	637378	50.713354975865	0
391	638544	50.718354975865	0
391	639405	50.723354975865	0
391	640648	50.728354975865	0
391	641841	50.733354975865	0
391	643615	50.740191370406	0
391	644906	50.745191370406	0
391	646465	50.752562593174	0
391	647688	50.757562593174	0
391	648748	50.762562593174	0
391	651839	50.774693130064	0
391	652813	50.779693130064	0
391	653958	50.785353798349	0
391	655369	50.790353798349	0
391	656213	50.795353798349	0
391	657607	50.800353798349	0
391	660855	50.815602086707	0
391	662073	50.820602086707	0
391	663092	50.825602086707	0
391	666165	50.838514051596	0
391	667037	50.843514051596	0
391	668493	50.848514051596	0
391	669628	50.853514051596	0
391	670787	50.858514051596	0
391	674767	50.878330218429	0
391	675986	50.883330218429	0
391	677425	50.889409248267	0
391	678517	50.894409248267	0
391	679370	50.899409248267	0
391	680801	50.906966804371	0
391	681568	50.911966804371	0
391	682613	50.916966804371	0
391	684417	50.922810709751	0
391	685581	50.927810709751	0
391	686457	50.932810709751	0
391	687453	50.937810709751	0
391	688339	50.942810709751	0
391	689622	50.947810709751	0
391	690447	50.952810709751	0
391	692998	50.964286784362	0
391	693968	50.969286784362	0
391	695208	50.975078220122	0
391	696014	50.980078220122	0
391	697187	50.985078220122	0
391	698421	50.990078220122	0
391	698954	50.995078220122	0
391	700279	51.000078220122	0
391	701085	51.005078220122	0
391	702933	51.018455135585	0
391	703451	51.023455135585	0
391	703668	51.028455135585	0
391	705021	51.034339006582	0
391	705541	51.039339006582	0
391	706054	51.044339006582	0
391	706684	51.052414924385	0
391	707493	51.057414924385	0
391	707890	51.062899263859	0
391	708626	51.067899263859	0
391	708627	51.072899263859	0
391	708733	51.080448411439	0
391	709253	51.085448411439	0
391	709782	51.090448411439	0
391	711722	51.108999962612	0
391	711762	51.113999962612	0
391	712274	51.135294419361	0
391	712275	51.140294419361	0
391	712789	51.175115373109	0
391	712790	51.180115373109	0
391	712797	51.505	1
391	712804	51.51	0
391	715236	51.519380225949	41
391	716989	51.524380225949	0
391	718842	51.529380225949	0
391	720217	51.534380225949	0
391	722546	51.543093729772	0
391	724040	51.548093729772	0
391	725203	51.553093729772	0
391	726642	51.558093729772	0
391	727800	51.563093729772	0
391	730740	51.576700845983	0
391	732034	51.581700845983	0
391	732980	51.586700845983	0
391	733970	51.594260232465	0
391	734913	51.599260232465	0
391	736153	51.604260232465	0
391	737684	51.609260232465	0
391	739160	51.614260232465	0
391	740204	51.619260232465	0
391	741109	51.624260232465	0
391	742237	51.63048753261	0
391	743093	51.63548753261	0
391	743730	51.64048753261	0
391	744612	51.64548753261	0
391	746154	51.65048753261	0
391	747362	51.657121283245	0
391	748660	51.662121283245	0
391	749774	51.667121283245	0
391	751812	51.67698636676	0
391	753085	51.68198636676	0
391	754115	51.68698636676	0
391	756318	51.69912859554	0
391	757400	51.70412859554	0
391	758434	51.70912859554	0
391	762039	51.728443132363	0
391	762710	51.733443132363	0
391	763876	51.738443132363	0
391	764828	51.743443132363	0
391	765578	51.748443132363	0
391	766702	51.753443132363	0
391	768045	51.758443132363	0
391	769031	51.763443132363	0
391	769615	51.768443132363	0
391	770376	51.774886174823	0
391	771206	51.779886174823	0
391	772264	51.784886174823	0
391	773807	51.790854073252	0
391	774350	51.795854073252	0
391	775753	51.806206081561	0
391	776682	51.811206081561	0
391	777841	51.816206081561	0
391	778890	51.821206081561	0
391	780045	51.832056616982	0
391	781027	51.837056616982	0
391	783574	51.849126209207	0
391	784385	51.854126209207	0
391	786097	51.862209308053	0
391	786714	51.867209308053	0
391	787304	51.872209308053	0
391	788752	51.878730533229	0
391	789477	51.883730533229	0
391	789925	51.888730533229	0
391	791029	51.895988061329	0
391	791508	51.900988061329	0
391	792021	51.905988061329	0
391	793417	51.913931929274	0
391	794248	51.918931929274	0
391	794821	51.923931929274	0
391	795327	51.928931929274	0
391	795849	51.933931929274	0
391	796370	51.938931929274	0
391	797099	51.943931929274	0
391	798271	51.948931929274	0
391	798786	51.953931929274	0
391	799250	51.958931929274	0
391	799360	51.963931929274	0
391	801389	52.006520406374	0
391	801390	52.011520406374	0
391	802083	52.020707934179	0
391	802084	52.025707934179	0
391	802589	52.04775238613	0
391	802590	52.05275238613	0
391	802654	52.505	1
391	803339	52.51	59
391	805857	52.515	0
391	808561	52.52	0
391	811085	52.530555090331	0
391	812354	52.535555090331	0
391	813784	52.540555090331	0
391	815745	52.546275458279	0
391	816844	52.551275458279	0
391	818374	52.556275458279	0
391	821602	52.567575410832	0
391	823302	52.572575410832	0
391	824342	52.577575410832	0
391	825776	52.582602165955	0
391	826938	52.587602165955	0
391	827821	52.592602165955	0
391	831591	52.607527114386	0
391	832736	52.612527114386	0
391	836058	52.623025773915	0
391	837374	52.628025773915	0
391	840390	52.641231729778	0
391	841540	52.646231729778	0
391	843094	52.651231729778	0
391	844192	52.656231729778	0
391	845526	52.661231729778	0
391	854171	52.696858783843	0
391	855658	52.701858783843	0
391	857329	52.706858783843	0
391	858988	52.711858783843	0
391	859907	52.716858783843	0
391	861322	52.721858783843	0
391	862467	52.726858783843	0
391	867646	52.747516996222	0
391	868882	52.752516996222	0
391	869633	52.757516996222	0
391	870944	52.762754199476	0
391	872132	52.767754199476	0
391	873735	52.772754199476	0
391	875019	52.777754199476	0
391	877435	52.791053001019	0
391	878887	52.796053001019	0
391	880173	52.801053001019	0
391	881459	52.806053001019	0
391	882941	52.811053001019	0
391	883845	52.816053001019	0
391	885149	52.821053001019	0
391	888089	52.832176121461	0
391	888841	52.837176121461	0
391	889787	52.842176121461	0
391	892355	52.853828311406	0
391	893583	52.858828311406	0
391	895027	52.863828311406	0
391	896309	52.868828311406	0
391	897488	52.873828311406	0
391	898634	52.878828311406	0
391	899850	52.883828311406	0
391	900280	52.888828311406	0
391	901509	52.893828311406	0
391	903201	52.900855984164	0
391	904130	52.905855984164	0
391	904869	52.910855984164	0
391	905999	52.915855984164	0
391	907970	52.924393812242	0
391	909323	52.929393812242	0
391	910047	52.934393812242	0
391	911111	52.939393812242	0
391	911873	52.944393812242	0
391	913811	52.954361828507	0
391	914919	52.959361828507	0
391	916919	52.968715020113	0