version 2
run AODVScenario_1b-0-20121001-16:03:48-3064
attr configname AODVScenario_1b
attr datetime 20121001-16:03:48
attr experiment AODVScenario_1b
attr inifile omnetpp.ini
attr iterationvars ""
attr iterationvars2 $repetition=0
attr measurement ""
attr network csma802154net
attr processid 3064
attr repetition 0
attr replication #0
attr resultdir results
attr runnumber 0
attr seedset 0

vector 386  csma802154net.dataCentricNetworkMan  RREQPacketFrequency  ETV
vector 387  csma802154net.dataCentricNetworkMan  DiscoveryPacketFrequency  ETV
vector 388  csma802154net.dataCentricNetworkMan  RegisterPacketFrequency  ETV
vector 389  csma802154net.dataCentricNetworkMan  RReplyPacketFrequency  ETV
vector 390  csma802154net.dataCentricNetworkMan  AODVDataPacketFrequency  ETV
vector 398  csma802154net.fixhost[6].udpApp  "End-to-end delay"  ETV
vector 383  csma802154net.dataCentricNetworkMan  dataPacketE2EDelay  ETV
vector 412  csma802154net.fixhost[20].udpApp  "End-to-end delay"  ETV
vector 401  csma802154net.fixhost[9].udpApp  "End-to-end delay"  ETV
383	694353	20.041276037288	0.041276037288
383	695077	20.063604068296	0.063604068296
383	841840	26.608575485469	5.608575485469
386	1135	2.005	1
386	1276	2.01	0
386	2004	2.038586446663	118
386	2139	2.043586446663	0
386	2716	2.068196933054	0
386	2854	2.073196933054	0
386	3433	2.090854953933	0
386	3571	2.095854953933	0
386	4413	3.005	1
386	4545	3.01	0
386	5432	3.034481908346	94
386	5433	3.039481908346	0
386	8033	3.24501	1
386	8038	3.25001	0
386	9887	3.288612380386	186
386	10540	3.293612380386	0
386	14787	3.336892874626	9
386	14846	3.341892874626	0
386	16108	3.361689028416	40
386	16245	3.366689028416	0
386	17595	3.386377369489	73
386	17758	3.391377369489	0
386	19061	3.411197914327	40
386	19118	3.416197914327	0
386	20455	3.435813517045	92
386	20534	3.440813517045	0
386	22108	3.460572640666	50
386	22161	3.465572640666	0
386	23852	3.485984735865	16
386	23874	3.490984735865	0
386	25355	3.510712945593	34
386	25374	3.515712945593	0
386	26799	3.535709514204	63
386	26850	3.540709514204	0
386	28196	3.562652864002	13
386	28234	3.567652864002	0
386	29365	3.588108352082	35
386	29533	3.593108352082	0
386	30625	3.616561060578	61
386	30645	3.621561060578	0
386	31689	3.640944821817	55
386	31710	3.645944821817	0
386	31919	3.65828056235	8
386	32170	3.66328056235	6
386	32583	3.66828056235	0
386	33466	3.692805409516	63
386	33697	3.697805409516	0
386	34002	3.708442774421	8
386	34326	3.713442774421	24
386	34351	3.718442774421	0
386	35055	3.724063278797	49
386	35184	3.729063278797	0
386	36156	3.74837573933	9
386	36195	3.75337573933	0
386	36479	3.76534584606	16
386	37459	3.77034584606	67
386	37618	3.77534584606	0
386	39241	3.798172617737	31
386	39332	3.803172617737	0
386	40608	3.822691453198	52
386	40875	3.827691453198	0
386	42120	3.847578693971	96
386	42706	3.852578693971	0
386	44067	3.872217837146	62
386	44330	3.877217837146	12
386	44415	3.882217837146	0
386	45771	3.899493539344	60
386	45851	3.904493539344	0
386	47081	3.924086734246	6
386	47126	3.929086734246	0
386	47394	3.934667090357	14
386	47426	3.939667090357	0
386	48250	3.949419124082	30
386	48297	3.954419124082	0
386	49509	3.974315965138	71
386	49565	3.979315965138	0
386	50860	4.001662341618	60
386	51015	4.006662341618	0
386	51956	4.027005008698	45
386	52155	4.032005008698	8
386	52410	4.037005008698	8
386	52582	4.042005008698	0
386	53250	4.051374159856	30
386	53288	4.056374159856	0
386	53767	4.066076648085	27
386	53927	4.071076648085	0
386	54458	4.088115156991	22
386	54831	4.093115156991	14
386	54989	4.098115156991	0
386	55751	4.11753553082	53
386	56045	4.12253553082	23
386	56067	4.12753553082	0
386	56839	4.141968706452	34
386	56853	4.146968706452	0
386	57709	4.166680780368	73
386	57723	4.171680780368	0
386	58717	4.191862806443	113
386	58719	4.196862806443	0
386	58734	4.20501	1
386	58743	4.21001	0
386	59332	4.217543585139	55
386	59468	4.222543585139	0
386	60108	4.24501	69
386	60122	4.25001	0
386	61161	4.282880359674	90
386	61163	4.287880359674	0
386	61792	4.307288890605	0
386	61796	4.312288890605	0
386	63344	4.344416893932	90
386	63630	4.349416893932	0
386	65400	4.371533666656	39
386	65525	4.376533666656	0
386	66907	4.396629520157	21
386	67004	4.401629520157	0
386	68345	4.421087197246	45
386	68520	4.426087197246	0
386	69978	4.446973982568	65
386	70106	4.451973982568	0
386	71388	4.472416768554	80
386	71426	4.477416768554	0
386	72736	4.49663199572	54
386	72942	4.50163199572	0
386	73283	4.508322551365	12
386	73348	4.513322551365	0
386	74309	4.522626545007	38
386	74643	4.527626545007	0
386	75972	4.547580828301	35
386	76166	4.552580828301	0
386	77365	4.57262167406	57
386	77545	4.57762167406	0
386	78692	4.59868196573	76
386	79151	4.60368196573	0
386	80447	4.624990398924	41
386	80618	4.629990398924	0
386	80716	4.64501	1
386	81485	4.65001	58
386	81883	4.65501	13
386	81920	4.66001	0
386	83061	4.67816328539	89
386	83096	4.68316328539	0
386	84062	4.704059518263	14
386	84106	4.709059518263	0
386	84386	4.718774145193	18
386	84851	4.723774145193	25
386	85174	4.728774145193	5
386	85205	4.733774145193	0
386	85548	4.748508829053	24
386	86163	4.753508829053	63
386	86196	4.758508829053	0
386	87440	4.778807975512	117
386	87468	4.783807975512	0
386	88415	4.80324170724	54
386	88435	4.80824170724	0
386	89262	4.828208914308	0
386	89289	4.833208914308	0
386	89779	4.852492387246	22
386	89801	4.857492387246	0
386	90451	4.866323985208	41
386	90465	4.871323985208	0
386	90785	4.88664913922	24
386	91298	4.89164913922	46
386	91307	4.89664913922	0
386	92022	4.918754986299	45
386	92322	4.923754986299	33
386	92341	4.928754986299	0
386	92865	4.945369802277	62
386	93124	4.950369802277	0
386	93746	4.97469744588	19
386	93758	4.97969744588	0
386	95429	5.001735701305	170
386	95937	5.006735701305	0
386	97771	5.027716089127	18
386	97869	5.032716089127	0
386	99530	5.052144140125	29
386	99691	5.057144140125	0
386	101254	5.077372021292	9
386	101299	5.082372021292	0
386	102401	5.102314362613	47
386	102481	5.107314362613	0
386	103830	5.127863334354	103
386	103993	5.132863334354	0
386	104613	5.142380903636	4
386	104682	5.147380903636	0
386	106106	5.166612710573	33
386	106178	5.171612710573	0
386	106517	5.180062689527	18
386	106552	5.185062689527	0
386	107445	5.191696616858	28
386	107492	5.196696616858	0
386	107582	5.20501	1
386	107637	5.21001	0
386	108470	5.217177836854	4
386	108505	5.222177836854	0
386	109787	5.242221048663	82
386	109829	5.247221048663	0
386	110985	5.266993052875	21
386	111041	5.271993052875	0
386	111271	5.282323537447	9
386	111415	5.287323537447	0
386	112029	5.293353903115	17
386	112044	5.298353903115	0
386	113274	5.317837601849	82
386	113305	5.322837601849	0
386	114431	5.342102769184	51
386	114463	5.347102769184	0
386	115609	5.366759893441	79
386	115627	5.371759893441	0
386	116975	5.391787753848	50
386	117115	5.396787753848	0
386	118322	5.419325799545	21
386	118360	5.424325799545	0
386	119111	5.444903922525	11
386	119123	5.449903922525	0
386	119557	5.45586269286	30
386	119655	5.46086269286	0
386	120474	5.469642138935	58
386	120525	5.474642138935	0
386	120966	5.482223709835	29
386	121032	5.487223709835	0
386	121648	5.497187419017	14
386	121669	5.502187419017	0
386	122085	5.51073204586	16
386	122117	5.51573204586	0
386	122659	5.522792744346	44
386	122685	5.527792744346	0
386	123128	5.535203457437	25
386	123174	5.540203457437	0
386	123843	5.547594429614	72
386	124075	5.552594429614	0
386	124866	5.561319895427	45
386	125010	5.566319895427	0
386	125535	5.573189065986	17
386	125842	5.578189065986	21
386	126415	5.583189065986	40
386	126692	5.588189065986	0
386	127080	5.593189065986	30
386	127155	5.598189065986	0
386	128060	5.610049896546	42
386	128295	5.615049896546	0
386	128699	5.62955303618	23
386	129009	5.63455303618	17
386	129672	5.63955303618	17
386	129724	5.64455303618	0
386	131060	5.667935119813	21
386	131149	5.672935119813	0
386	131672	5.679958356256	12
386	132160	5.684958356256	2
386	132346	5.689958356256	0
386	132948	5.704364524984	12
386	133149	5.709364524984	0
386	133460	5.714426162791	21
386	133506	5.719426162791	0
386	134441	5.736377450324	11
386	134462	5.741377450324	0
386	135206	5.752428164092	51
386	135533	5.757428164092	1
386	135704	5.762428164092	0
386	136312	5.777150338529	9
386	136333	5.782150338529	0
386	136891	5.790143819769	20
386	136927	5.795143819769	0
386	137493	5.80375711973	43
386	137517	5.80875711973	0
386	138201	5.816365731814	17
386	138234	5.821365731814	0
386	138449	5.82665968108	0
386	138468	5.83165968108	0
386	139123	5.842479386771	3
386	139353	5.847479386771	0
386	139952	5.867562301933	27
386	139997	5.872562301933	0
386	140553	5.880256591692	0
386	140710	5.885256591692	0
386	141201	5.893121071612	36
386	141235	5.898121071612	0
386	141775	5.909704611952	0
386	141799	5.914704611952	0
386	142482	5.919720145796	53
386	142499	5.924720145796	0
386	143449	5.944223791624	73
386	143475	5.949223791624	0
386	143975	5.963970622082	0
386	144515	5.968970622082	44
386	144653	5.973970622082	0
386	145739	5.998271679398	53
386	146010	6.003271679398	1
386	146023	6.008271679398	0
386	146607	6.025361983962	35
386	146612	6.030361983962	0
386	146916	6.039559142476	26
386	147231	6.044559142476	0
386	147880	6.070808938935	0
386	148018	6.075808938935	0
386	148753	6.10057697102	0
386	148757	6.10557697102	0
386	149785	6.147616948184	7
386	150139	6.152616948184	0
386	150673	6.175264929342	0
386	150683	6.180264929342	0
386	151438	6.207330206147	0
386	151709	6.212330206147	0
386	152246	6.237136957804	0
386	152503	6.242136957804	1
386	152771	6.247136957804	0
386	153818	6.272938566871	82
386	154085	6.277938566871	0
386	155354	6.296010226709	0
386	155655	6.301010226709	0
386	157560	6.345849160062	74
386	157797	6.350849160062	0
386	159143	6.370741532919	91
386	159230	6.375741532919	0
386	160684	6.395337011894	81
386	160773	6.400337011894	0
386	162361	6.419812443253	44
386	162389	6.424812443253	0
386	164599	6.472629204145	65
386	164659	6.477629204145	0
386	165469	6.49825609107	12
386	165517	6.50325609107	0
386	166554	6.522734245558	61
386	166600	6.527734245558	0
386	167583	6.54762125152	64
386	167762	6.55262125152	0
386	168718	6.574392226509	7
386	168886	6.579392226509	3
386	168895	6.584392226509	0
386	169773	6.598732603375	40
386	169806	6.603732603375	0
386	170741	6.623708495424	120
386	170758	6.628708495424	0
386	171322	6.64501	1
386	171671	6.65001	0
386	172099	6.658980952391	26
386	172126	6.663980952391	0
386	172582	6.678504063449	19
386	172925	6.683504063449	40
386	172940	6.688504063449	0
386	173372	6.706688463269	20
386	173382	6.711688463269	0
386	174062	6.7176405032	53
386	174064	6.7226405032	0
386	175266	6.743318341297	82
386	175526	6.748318341297	0
386	176781	6.770371706345	35
386	176851	6.775371706345	0
386	177660	6.795594860657	21
386	177706	6.800594860657	0
386	179192	6.81933940962	142
386	179586	6.82433940962	0
386	181618	6.845254480005	51
386	181747	6.850254480005	0
386	183340	6.869533835116	43
386	183397	6.874533835116	0
386	184858	6.894156361684	45
386	184897	6.899156361684	0
386	184937	6.904156361684	0
386	185885	6.918674818249	19
386	186193	6.923674818249	0
386	187157	6.945168389971	35
386	187321	6.950168389971	0
386	188093	6.969714205704	30
386	188424	6.974714205704	28
386	188650	6.979714205704	0
386	188744	6.984714205704	0
386	189657	6.994957847423	47
386	190015	6.999957847423	32
386	190432	7.004957847423	1
386	190491	7.009957847423	0
386	191278	7.02292645545	18
386	191629	7.02792645545	31
386	191681	7.03292645545	0
386	192688	7.047587024681	39
386	192726	7.052587024681	0
386	193263	7.062870771224	0
386	193312	7.067870771224	0
386	194313	7.074229586004	29
386	194344	7.079229586004	0
386	195410	7.099517890485	14
386	195570	7.104517890485	0
386	196454	7.124405923822	28
386	196771	7.129405923822	0
386	197978	7.158028287843	19
386	198151	7.163028287843	0
386	198819	7.183287726637	24
386	198833	7.188287726637	0
386	199705	7.194382814144	30
386	199714	7.199382814144	0
386	200246	7.211360805671	0
386	200701	7.216360805671	2
386	200725	7.221360805671	0
386	201337	7.24501	1
386	201542	7.25001	0
386	202195	7.26471802378	1
386	202202	7.26971802378	0
386	203592	7.317386743439	40
386	203603	7.322386743439	0
386	204277	7.335278825534	0
386	204420	7.340278825534	0
386	206073	7.397259984662	0
386	206085	7.402259984662	0
386	206757	7.418680273035	0
386	206904	7.423680273035	0
386	208585	7.467456278364	0
386	208592	7.472456278364	0
386	209770	7.520840254119	0
386	210054	7.525840254119	0
386	210735	7.550354941211	0
386	211075	7.555354941211	0
386	211921	7.581752295022	0
386	211928	7.586752295022	0
386	213045	7.623040324723	0
386	213295	7.628040324723	0
386	213730	7.64501	1
386	213884	7.65001	0
386	214447	7.662720302094	0
386	214458	7.667720302094	0
386	215607	7.698248305478	82
386	215900	7.703248305478	0
386	217219	7.726162968953	64
386	217680	7.731162968953	0
386	218141	7.742168309166	0
386	218625	7.747168309166	0
386	219685	7.75792990066	12
386	219761	7.76292990066	0
386	220960	7.782557807621	3
386	221034	7.787557807621	0
386	222225	7.808234550782	49
386	222366	7.813234550782	0
386	222434	7.818234550782	0
386	223428	7.834010499779	47
386	223497	7.839010499779	0
386	224862	7.855247564475	89
386	225045	7.860247564475	0
386	225252	7.865247564475	0
386	227048	7.882839827437	21
386	227110	7.887839827437	0
386	228625	7.907447668371	3
386	228686	7.912447668371	0
386	230090	7.932487696884	50
386	230146	7.937487696884	0
386	231502	7.957116786013	38
386	231549	7.962116786013	0
386	232680	7.981463175228	51
386	232734	7.986463175228	0
386	233858	8.005	52
386	234460	8.01	0
386	235778	8.033772440577	30
386	236398	8.038772440577	0
386	237147	8.058826623726	39
386	238054	8.063826623726	11
386	238077	8.068826623726	0
386	238591	8.08506358574	10
386	239457	8.09006358574	11
386	239479	8.09506358574	0
386	240407	8.115367227053	50
386	240425	8.120367227053	0
386	241235	8.142839879369	91
386	241379	8.147839879369	0
386	242231	8.175337145988	0
386	242550	8.180337145988	0
386	243283	8.202992289854	0
386	243433	8.207992289854	0
386	243964	8.24501	1
386	243980	8.25001	0
386	244604	8.264564063018	0
386	244742	8.269564063018	0
386	245963	8.316980088839	0
386	246107	8.321980088839	0
386	246741	8.345532075294	0
386	246880	8.350532075294	0
386	247598	8.373917164117	0
386	247744	8.378917164117	0
386	248635	8.429872278101	0
386	248777	8.434872278101	0
386	248964	8.44237693893	0
386	249101	8.44737693893	0
386	249622	8.469710917625	0
386	249627	8.474710917625	0
386	252456	8.541432325038	0
386	252725	8.546432325038	0
386	254004	8.600589212933	0
386	254009	8.605589212933	0
386	254412	8.64501	1
386	255753	8.65001	159
386	256289	8.65501	0
386	256587	8.66001	0
386	258448	8.676434440255	28
386	258557	8.681434440255	0
386	260309	8.700790895759	36
386	260454	8.705790895759	0
386	261728	8.725856741823	6
386	261805	8.730856741823	0
386	262795	8.748130554215	16
386	263310	8.753130554215	0
386	264557	8.777352897069	61
386	264735	8.782352897069	0
386	265405	8.802760212639	16
386	266040	8.807760212639	34
386	266093	8.812760212639	0
386	266809	8.832840724046	3
386	266844	8.837840724046	0
386	267579	8.853555264278	0
386	267613	8.858555264278	0
386	268241	8.868369387941	1
386	268476	8.873369387941	0
386	269375	8.893235695551	4
386	270037	8.898235695551	0
386	271280	8.922833385848	70
386	271339	8.927833385848	0
386	272503	8.948684524669	14
386	272541	8.953684524669	0
386	273623	8.971664481252	14
386	273860	8.976664481252	0
386	274519	8.998632288309	25
386	275241	9.003632288309	0
386	276510	9.029732673295	90
386	276634	9.034732673295	0
386	276755	9.039732673295	0
386	277623	9.055567885642	32
386	277659	9.060567885642	0
386	278175	9.074983730635	26
386	278694	9.079983730635	37
386	278772	9.084983730635	0
386	280421	9.105583237967	166
386	280811	9.110583237967	0
386	282975	9.130912556918	3
386	283367	9.135912556918	0
386	284753	9.155270051717	6
386	285133	9.160270051717	0
386	286046	9.181907212876	69
386	286501	9.186907212876	0
386	287471	9.20642656352	20
386	287962	9.21142656352	0
386	289199	9.232601354737	49
386	289391	9.237601354737	0
386	290329	9.257787000116	54
386	290489	9.262787000116	0
386	291652	9.286601963006	72
386	292059	9.291601963006	18
386	292089	9.296601963006	0
386	293135	9.31106087427	37
386	293425	9.31606087427	17
386	293517	9.32106087427	0
386	294614	9.335666121354	19
386	294655	9.340666121354	0
386	295749	9.360832970863	34
386	295791	9.365832970863	0
386	297210	9.385541889339	88
386	297234	9.390541889339	0
386	298274	9.410610434209	8
386	298311	9.415610434209	0
386	299046	9.433560204018	0
386	299775	9.438560204018	9
386	299819	9.443560204018	0
386	300797	9.465037009561	1
386	300821	9.470037009561	0
386	301788	9.488072226171	9
386	301932	9.493072226171	0
386	303045	9.538702459851	50
386	303324	9.543702459851	0
386	304130	9.567924232537	1
386	304147	9.572924232537	0
386	305018	9.589278173766	0
386	305360	9.594278173766	0
386	305500	9.599278173766	0
386	306558	9.644342979286	0
386	306851	9.649342979286	0
386	307140	9.654342979286	0
386	307153	9.659342979286	0
386	307860	9.669920300128	0
386	308163	9.674920300128	0
386	310105	9.731696348023	0
386	310256	9.736696348023	0
386	312756	9.815176297542	0
386	313035	9.820176297542	0
386	314235	9.868093192639	0
386	314592	9.873093192639	0
386	314784	9.892758348023	1
386	315157	9.897758348023	0
386	315881	9.922056308452	0
386	316278	9.927056308452	0
386	318125	9.979334215475	0
386	318137	9.984334215475	0
386	318850	10.005	1
386	319068	10.01	0
386	319080	10.015	0
386	321114	10.05581457691	40
386	321529	10.06081457691	0
386	321537	10.06581457691	0
386	322568	10.086952219035	0
386	322599	10.091952219035	0
386	323201	10.110117218975	0
386	323475	10.115117218975	0
386	323516	10.132758348023	1
386	324018	10.137758348023	0
386	324259	10.142758348023	0
386	326088	10.196576382557	0
386	326234	10.201576382557	0
386	327076	10.244836692022	1
386	327088	10.249836692022	0
386	327878	10.267374983252	49
386	328043	10.272374983252	0
386	328905	10.281381176001	56
386	329118	10.286381176001	0
386	329713	10.291814183439	0
386	330094	10.296814183439	0
386	330753	10.309251254429	10
386	331103	10.314251254429	0
386	332186	10.339565518411	54
386	332309	10.344565518411	0
386	333333	10.349962638215	82
386	333589	10.354962638215	0
386	334106	10.364204573506	21
386	334158	10.369204573506	0
386	335187	10.374486983252	28
386	335300	10.379486983252	0
386	336611	10.399783275329	32
386	336781	10.404783275329	0
386	338263	10.427568317965	105
386	338423	10.432568317965	0
386	339948	10.453568155729	48
386	340017	10.458568155729	0
386	341470	10.47783594789	38
386	341545	10.48283594789	0
386	341612	10.48783594789	0
386	344154	10.529032924643	36
386	344399	10.534032924643	0
386	345560	10.5519272981	0
386	345957	10.5569272981	0
386	347150	10.582116942586	0
386	347199	10.587116942586	0
386	348350	10.60291178222	15
386	348413	10.60791178222	0
386	348822	10.616428541155	12
386	348860	10.621428541155	0
386	349618	10.627612604246	23
386	349807	10.632612604246	0
386	351482	10.66689009198	27
386	351669	10.67189009198	0
386	352196	10.681671247553	47
386	352546	10.686671247553	0
386	353029	10.692758348023	37
386	353140	10.697758348023	0
386	353321	10.702758348023	0
386	353940	10.711520924643	18
386	353984	10.716520924643	0
386	354641	10.73036291565	47
386	354963	10.73536291565	36
386	355161	10.74036291565	0
386	355928	10.753083321725	0
386	355968	10.758083321725	0
386	356193	10.766380684864	0
386	356944	10.771380684864	0
386	357606	10.776380684864	0
386	359226	10.807426832242	60
386	359343	10.812426832242	0
386	360476	10.832871396382	2
386	360678	10.837871396382	0
386	361314	10.854918739543	4
386	361543	10.859918739543	0
386	361727	10.864918739543	0
386	362543	10.879119816502	90
386	362801	10.884119816502	0
386	363797	10.889419135308	48
386	364260	10.894419135308	0
386	364640	10.902369945471	0
386	364717	10.907369945471	0
386	365099	10.913838055911	5
386	365587	10.918838055911	0
386	367011	10.939941143847	51
386	367263	10.944941143847	0
386	368083	10.964641888153	17
386	368118	10.969641888153	0
386	368783	10.975483136281	6
386	368833	10.980483136281	0
386	369358	10.989104280804	20
386	369401	10.994104280804	0
386	370400	11.000873668452	46
386	370469	11.005873668452	0
386	370995	11.016298997244	23
386	371530	11.021298997244	0
386	372032	11.026298997244	0
386	372768	11.046046000841	18
386	373382	11.051046000841	31
386	373505	11.056046000841	0
386	373583	11.061046000841	0
386	374416	11.072923809435	38
386	374919	11.077923809435	34
386	374990	11.082923809435	0
386	376202	11.100148364717	1
386	376448	11.105148364717	0
386	377449	11.125908244137	16
386	377490	11.130908244137	0
386	378525	11.146375400748	13
386	378981	11.151375400748	0
386	381734	11.20107483224	61
386	381885	11.20607483224	0
386	383246	11.225912206096	39
386	383295	11.230912206096	0
386	385027	11.250418371687	74
386	385150	11.255418371687	0
386	385902	11.273392398308	2
386	386614	11.278392398308	0
386	387915	11.303080096856	36
386	388052	11.308080096856	0
386	389360	11.329037778858	31
386	389658	11.334037778858	0
386	391245	11.356781353333	56
386	391383	11.361781353333	0
386	392778	11.381537672219	0
386	393152	11.386537672219	0
386	394318	11.407784434101	43
386	394675	11.412784434101	0
386	395619	11.441120369892	24
386	395978	11.446120369892	12
386	396174	11.451120369892	0
386	397298	11.46797669849	89
386	397447	11.47297669849	0
386	397733	11.478914219068	8
386	397960	11.483914219068	0
386	399867	11.512253875922	63
386	399977	11.517253875922	0
386	400942	11.536856369892	63
386	401241	11.541856369892	0
386	402128	11.561750634304	17
386	402430	11.566750634304	0
386	403801	11.590052410019	54
386	403840	11.595052410019	0
386	405165	11.615204282536	19
386	405214	11.620204282536	0
386	406431	11.640623187053	61
386	406470	11.645623187053	0
386	407369	11.666616621383	33
386	408068	11.671616621383	0
386	408597	11.693476604246	11
386	409456	11.698476604246	20
386	409485	11.703476604246	0
386	410483	11.723353441978	74
386	410642	11.728353441978	0
386	411701	11.75041372149	59
386	411942	11.75541372149	0
386	412264	11.762162888926	13
386	412449	11.767162888926	0
386	413054	11.775059527298	46
386	413387	11.780059527298	0
386	413801	11.794266904228	16
386	413836	11.799266904228	0
386	414544	11.805831038288	44
386	414625	11.810831038288	0
386	415174	11.820581718775	33
386	415277	11.825581718775	0
386	416054	11.831737362071	52
386	416211	11.836737362071	0
386	416881	11.846565535368	45
386	417152	11.851565535368	0
386	417770	11.856565535368	28
386	418031	11.861565535368	0
386	418637	11.87184841431	31
386	418671	11.87684841431	0
386	419291	11.882850747195	11
386	419324	11.887850747195	0
386	419831	11.899496887519	14
386	420217	11.904496887519	6
386	420647	11.909496887519	0
386	420991	11.926504887519	14
386	421480	11.931504887519	33
386	421648	11.936504887519	0
386	422891	11.962150626658	82
386	423028	11.967150626658	0
386	423305	11.973392641309	7
386	423508	11.978392641309	0
386	424328	11.986440406469	29
386	424636	11.991440406469	0
386	425258	12.003130907674	9
386	425327	12.008130907674	0
386	427408	12.040304796159	23
386	427454	12.045304796159	0
386	428721	12.064669102872	89
386	428787	12.069669102872	0
386	429773	12.089096936078	47
386	429811	12.094096936078	0
386	430609	12.114189914273	50
386	430755	12.119189914273	0
386	431446	12.126069706527	17
386	431640	12.131069706527	0
386	432234	12.142843227507	46
386	432422	12.147843227507	7
386	432591	12.152843227507	0
386	433091	12.16708041431	27
386	433099	12.17208041431	0
386	433502	12.178491080224	9
386	433525	12.183491080224	0
386	433814	12.190513899358	22
386	433829	12.195513899358	0
386	434473	12.204418725031	63
386	434492	12.209418725031	0
386	435543	12.229069231232	116
386	435557	12.234069231232	0
386	436289	12.253560377824	14
386	436307	12.258560377824	0
386	436534	12.26646642253	12
386	436536	12.27146642253	0
386	437272	12.279021234177	0
386	437428	12.284021234177	0
386	437904	12.303598404855	35
386	438200	12.308598404855	23
386	438209	12.313598404855	0
386	438895	12.329750755689	50
386	438910	12.334750755689	0
386	440716	12.38303442253	17
386	441039	12.38803442253	0
386	441752	12.416170054336	33
386	441754	12.421170054336	0
386	443118	12.470669301566	0
386	443260	12.475669301566	0
386	443999	12.500437332864	0
386	444006	12.505437332864	0
386	444500	12.527834054336	43
386	444831	12.532834054336	0
386	445215	12.537834054336	0
386	446657	12.593066777964	0
386	446795	12.598066777964	0
386	447497	12.624114784018	47
386	447502	12.629114784018	0
386	448189	12.651442784018	83
386	448190	12.656442784018	0
386	448737	12.679090784018	83
386	448738	12.684090784018	0
386	449491	12.713674815916	0
386	449629	12.718674815916	0
386	451156	12.787282834446	118
386	451311	12.792282834446	0
386	451702	12.810744300119	0
386	452080	12.815744300119	0
386	452921	12.847178133077	0
386	453059	12.852178133077	0
386	453789	12.876306154581	0
386	453930	12.881306154581	0
386	454299	12.907034175613	0
386	454454	12.912034175613	0
386	455667	12.948074125652	51
386	455668	12.953074125652	0
386	456388	12.974122125652	51
386	456389	12.979122125652	0
386	457210	13.000170125652	51
386	457211	13.005170125652	0
386	458370	13.054882116237	118
386	458371	13.059882116237	0
386	458923	13.081274113881	0
386	459061	13.086274113881	0
386	459730	13.112962138352	77
386	459734	13.117962138352	0
386	460413	13.139330138352	77
386	460418	13.144330138352	0
386	460962	13.165698138352	77
386	460963	13.170698138352	0
386	461660	13.221082128182	0
386	461664	13.226082128182	0
386	462455	13.309090144204	0
386	462459	13.314090144204	0
386	463129	14.005	0
386	463130	14.01	0
386	463723	14.023308009299	0
386	463861	14.028308009299	0
386	464456	14.046276028253	0
386	464460	14.051276028253	0
386	465245	14.149884036896	0
386	465249	14.154884036896	0
386	465941	14.184052049661	0
386	466141	14.189052049661	0
386	466653	14.207660059528	0
386	466791	14.212660059528	0
386	467336	14.230948082132	0
386	467340	14.235948082132	0
386	468202	14.315996086533	0
386	468343	14.320996086533	0
386	468877	14.338654100016	1
386	468896	14.343654100016	0
386	469461	14.372758348023	59
386	469468	14.377758348023	0
386	470772	14.408680222352	115
386	471178	14.413680222352	0
386	472934	14.434837780346	24
386	473070	14.439837780346	0
386	474186	14.459911375755	27
386	474463	14.464911375755	0
386	475634	14.485795890676	121
386	476417	14.490795890676	0
386	477289	14.511801329863	49
386	478222	14.516801329863	12
386	478317	14.521801329863	0
386	479515	14.542991939332	52
386	479639	14.547991939332	0
386	480551	14.565492306932	22
386	480852	14.570492306932	0
386	480941	14.578654100016	1
386	481203	14.583654100016	13
386	481388	14.588654100016	0
386	482152	14.594316928673	23
386	482226	14.599316928673	0
386	483055	14.61230252262	23
386	483538	14.61730252262	28
386	483750	14.62230252262	0
386	484376	14.63711343006	6
386	485006	14.64211343006	31
386	485166	14.64711343006	0
386	486264	14.666809430788	45
386	486312	14.671809430788	0
386	487134	14.693093702956	6
386	487403	14.698093702956	14
386	487507	14.703093702956	0
386	488531	14.718421453693	73
386	488598	14.723421453693	0
386	489622	14.74286042983	72
386	489701	14.74786042983	0
386	490643	14.770587169455	52
386	490907	14.775587169455	19
386	490986	14.780587169455	0
386	491952	14.797910819355	60
386	491965	14.802910819355	0
386	492211	14.81029073727	15
386	492233	14.81529073727	0
386	493023	14.823569142507	31
386	493033	14.828569142507	0
386	493808	14.84868219732	57
386	493822	14.85368219732	0
386	494835	14.874062862768	116
386	494850	14.879062862768	0
386	495776	14.898411167274	84
386	495913	14.903411167274	0
386	496649	14.925114907231	78
386	496781	14.930114907231	0
386	497784	14.954770084879	83
386	497786	14.959770084879	0
386	498556	14.978654100016	55
386	498688	14.983654100016	0
386	499629	15.005	116
386	500189	15.01	0
386	501864	15.034385654233	19
386	501954	15.039385654233	0
386	503262	15.059280509812	119
386	503574	15.064280509812	0
386	505004	15.084647124527	2
386	505078	15.089647124527	0
386	505339	15.096602988433	8
386	505390	15.101602988433	0
386	506558	15.108931797371	50
386	506698	15.113931797371	0
386	508176	15.133255267167	40
386	508236	15.138255267167	0
386	509626	15.157506548153	42
386	509703	15.162506548153	0
386	511289	15.185073358628	52
386	511348	15.190073358628	0
386	512861	15.210529986015	42
386	512932	15.215529986015	0
386	514209	15.235376069389	46
386	514345	15.240376069389	0
386	515616	15.260194476243	42
386	515651	15.265194476243	0
386	516892	15.285341869212	43
386	516914	15.290341869212	0
386	517924	15.31056220897	30
386	517966	15.31556220897	0
386	518943	15.335896221833	23
386	519188	15.340896221833	18
386	519335	15.345896221833	0
386	520206	15.360600170923	48
386	520287	15.365600170923	0
386	520545	15.373218669171	17
386	520564	15.378218669171	0
386	521365	15.386971739694	36
386	521384	15.391971739694	0
386	522319	15.411257266922	91
386	522345	15.416257266922	0
386	522785	15.438546555539	24
386	523285	15.443546555539	46
386	523298	15.448546555539	0
386	524060	15.470936667001	115
386	524061	15.475936667001	0
386	524844	15.506755964874	99
386	524848	15.511755964874	0
386	525608	15.538654100016	97
386	525628	15.543654100016	0
386	526255	15.572927192733	32
386	526811	15.577927192733	40
386	526890	15.582927192733	0
386	527993	15.601551849666	59
386	528169	15.606551849666	0
386	529164	15.626124679995	10
386	529202	15.631124679995	0
386	530658	15.653850254552	193
386	531228	15.658850254552	0
386	533149	15.679218725482	65
386	533246	15.684218725482	0
386	534963	15.703473683548	30
386	535056	15.708473683548	0
386	536562	15.728803380059	22
386	536608	15.733803380059	0
386	537879	15.753767233747	11
386	537931	15.758767233747	0
386	539180	15.778947624651	42
386	539206	15.783947624651	0
386	540399	15.804075990628	65
386	540446	15.809075990628	0
386	541726	15.830318822615	34
386	541776	15.835318822615	0
386	542757	15.855681727354	20
386	542785	15.860681727354	0
386	544131	15.882020819867	85
386	544183	15.887020819867	0
386	545404	15.908905949279	31
386	545433	15.913905949279	0
386	546453	15.933642625258	36
386	546492	15.938642625258	0
386	547497	15.958268799741	79
386	547510	15.963268799741	0
386	548150	15.985243043236	18
386	548155	15.990243043236	0