file 235930 1353498448                                          
version 2
run AODVScenario_1f-32-20121121-11:47:07-3016
attr configname AODVScenario_1f
attr datetime 20121121-11:47:07
attr experiment AODVScenario_1f
attr inifile AODV.ini
attr iterationvars $numNodes=82
attr iterationvars2 "$numNodes=82, $repetition=0"
attr measurement $numNodes=82
attr network csma802154net
attr numNodes 82
attr processid 3016
attr repetition 0
attr replication #0
attr resultdir results
attr runnumber 32
attr seedset 32

vector 339  csma802154net.dataCentricNetworkMan  RREQPacketFrequency  ETV
vector 340  csma802154net.dataCentricNetworkMan  RERRPacketFrequency  ETV
vector 341  csma802154net.dataCentricNetworkMan  DiscoveryPacketFrequency  ETV
vector 342  csma802154net.dataCentricNetworkMan  RegisterPacketFrequency  ETV
vector 343  csma802154net.dataCentricNetworkMan  RReplyPacketFrequency  ETV
vector 344  csma802154net.dataCentricNetworkMan  AODVDataPacketFrequency  ETV
vector 351  csma802154net.dataCentricNetworkMan  pendingRegistrationVector  ETV
vector 350  csma802154net.dataCentricNetworkMan  pendingRREQVector  ETV
vector 348  csma802154net.dataCentricNetworkMan  PendingDataPacketsVector  ETV
vector 364  csma802154net.fixhost[12].udpApp  "End-to-end delay"  ETV
vector 336  csma802154net.dataCentricNetworkMan  dataPacketE2EDelay  ETV
vector 367  csma802154net.fixhost[15].udpApp  "End-to-end delay"  ETV
vector 368  csma802154net.fixhost[16].udpApp  "End-to-end delay"  ETV
vector 360  csma802154net.fixhost[8].udpApp  "End-to-end delay"  ETV
vector 375  csma802154net.fixhost[23].udpApp  "End-to-end delay"  ETV
vector 361  csma802154net.fixhost[9].udpApp  "End-to-end delay"  ETV
vector 356  csma802154net.fixhost[4].udpApp  "End-to-end delay"  ETV
vector 358  csma802154net.fixhost[6].udpApp  "End-to-end delay"  ETV
vector 362  csma802154net.fixhost[10].udpApp  "End-to-end delay"  ETV
vector 357  csma802154net.fixhost[5].udpApp  "End-to-end delay"  ETV
vector 359  csma802154net.fixhost[7].udpApp  "End-to-end delay"  ETV
vector 363  csma802154net.fixhost[11].udpApp  "End-to-end delay"  ETV
336	2083 7062 577435 2000737 70.013756041102 7273.071580136931 156 0.011516041104 0.094580168477 5.843863931466 0.27808659608561
339	9145 34207 658 2000945 1.005 7273.077212081411 1229 0 96 1628 82568
340	43352 34169 658 2000945 1.005 7273.077212081411 1229 0 0 0 0
341	77521 34169 658 2000945 1.005 7273.077212081411 1229 0 0 0 0
342	111690 34169 658 2000945 1.005 7273.077212081411 1229 0 1 12 12
343	145859 34181 658 2000945 1.005 7273.077212081411 1229 0 80 1265 37517
344	180040 34184 658 2000945 1.005 7273.077212081411 1229 0 66 1191 29085
348	214224 12801 576276 2000737 70 7273.071580136931 416 0 3 520 1040
350	227025 1259 29343 545746 43.50001 54.679170257169 45 0 1 15 15
351	228284 584 29338 568459 43.5 54.821191800475 24 0 1 12 12
356	228868 591 585138 1992522 72.025796075637 7272.023876075637 13 0.023876075636 0.049572137265 0.399405322229 0.012960377419119
357	229459 585 591684 1999460 73.03692408141 7273.052212081411 13 0.023236081411 0.06558008141 0.449261058336 0.01776023258893
358	230044 591 586373 1993759 72.060172128578 7272.054164128576 13 0.026044097763 0.062732128578 0.625509714055 0.031993753632221
359	230635 583 592102 1998594 73.04256416767 7273.029596105164 13 0.029596105164 0.066532136124 0.596637710034 0.029749620476696
360	231218 591 580145 1986952 71.016916049292 7271.014996049292 13 0.014356049292 0.029252049292 0.248916640796 0.0050447554991665
361	231809 591 582238 1988820 71.037812079648 7271.048764079648 13 0.024516079648 0.077740079648 0.549949054095 0.026033512404589
362	232400 585 587217 1994604 72.070012172947 7272.064004172945 13 0.038764145902 0.089180145902 0.796702278296 0.051186739771217
363	232985 589 592520 2000737 73.048604184411 7273.071580136931 13 0.036524136931 0.094580168477 0.856126049043 0.060028172192427
364	233574 591 577435 1984245 70.013756041102 7270.021436041102 13 0.011516041104 0.021436041102 0.182668534347 0.0026391422646253
367	234165 587 577851 1984660 70.018516071589 7270.026196071588 13 0.015636071591 0.026196071588 0.239748930676 0.0045032505353595
368	234752 589 578266 1985075 70.02199609806 7270.030956098059 13 0.020076098062 0.030956098059 0.298429274798 0.006932896496613
375	235341 589 581824 1989631 71.031804104982 7271.054132104981 13 0.026116104982 0.05765210498 0.600509364761 0.029254142804644
