file 264294 1353025400                                          
version 2
run AODVScenario_1f-66-20121116-00:22:41-3244
attr configname AODVScenario_1f
attr datetime 20121116-00:22:41
attr experiment AODVScenario_1f
attr inifile AODV.ini
attr iterationvars $numNodes=116
attr iterationvars2 "$numNodes=116, $repetition=0"
attr measurement $numNodes=116
attr network csma802154net
attr numNodes 116
attr processid 3244
attr repetition 0
attr replication #0
attr resultdir results
attr runnumber 66
attr seedset 66

vector 475  csma802154net.dataCentricNetworkMan  RREQPacketFrequency  ETV
vector 476  csma802154net.dataCentricNetworkMan  RERRPacketFrequency  ETV
vector 477  csma802154net.dataCentricNetworkMan  DiscoveryPacketFrequency  ETV
vector 478  csma802154net.dataCentricNetworkMan  RegisterPacketFrequency  ETV
vector 479  csma802154net.dataCentricNetworkMan  RReplyPacketFrequency  ETV
vector 480  csma802154net.dataCentricNetworkMan  AODVDataPacketFrequency  ETV
vector 487  csma802154net.dataCentricNetworkMan  pendingRegistrationVector  ETV
vector 486  csma802154net.dataCentricNetworkMan  pendingRREQVector  ETV
vector 481  csma802154net.dataCentricNetworkMan  AODVDataLineBreakVector  ETV
vector 484  csma802154net.dataCentricNetworkMan  PendingDataPacketsVector  ETV
vector 498  csma802154net.fixhost[10].udpApp  "End-to-end delay"  ETV
vector 472  csma802154net.dataCentricNetworkMan  dataPacketE2EDelay  ETV
vector 501  csma802154net.fixhost[13].udpApp  "End-to-end delay"  ETV
vector 499  csma802154net.fixhost[11].udpApp  "End-to-end delay"  ETV
vector 490  csma802154net.fixhost[2].udpApp  "End-to-end delay"  ETV
vector 491  csma802154net.fixhost[3].udpApp  "End-to-end delay"  ETV
vector 492  csma802154net.fixhost[4].udpApp  "End-to-end delay"  ETV
vector 502  csma802154net.fixhost[14].udpApp  "End-to-end delay"  ETV
vector 506  csma802154net.fixhost[18].udpApp  "End-to-end delay"  ETV
vector 505  csma802154net.fixhost[17].udpApp  "End-to-end delay"  ETV
vector 497  csma802154net.fixhost[9].udpApp  "End-to-end delay"  ETV
vector 500  csma802154net.fixhost[12].udpApp  "End-to-end delay"  ETV
vector 507  csma802154net.fixhost[19].udpApp  "End-to-end delay"  ETV
472	2168 7050 1197162 3134545 70.014076041507 7273.057332088719 156 0.007396011999 0.077812099157 4.203441994668 0.14935916434802
475	9218 38931 933 3134840 1.005 7273.062892072897 1366 0 113 3807 256755
476	48149 38859 933 3134840 1.005 7273.062892072897 1366 0 0 0 0
477	87008 38859 933 3134840 1.005 7273.062892072897 1366 0 0 0 0
478	125867 38859 933 3134840 1.005 7273.062892072897 1366 0 1 12 12
479	164726 38872 933 3134840 1.005 7273.062892072897 1366 0 127 1739 79721
480	203598 38879 933 3134840 1.005 7273.062892072897 1366 0 97 1354 55358
481	242477 30 367505 367505 45.810926766323 45.810926766323 1 1 1 1 1
484	242507 12911 1195603 3134545 70 7273.057332088719 416 0 3 520 1040
486	255418 1237 53273 1086204 43.50001 54.562892168677 44 0 1 14 14
487	256655 589 53268 1188402 43.5 55.021512339198 24 0 1 12 12
490	257244 529 1200997 3121500 71.009956012 7271.008356011999 13 0.007396011999 0.012516012 0.120148155998 0.0011419998915224
491	257773 595 1201589 3122092 71.014396024515 7271.012796024514 13 0.011516024514 0.017276024515 0.178508318692 0.0024836236801808
492	258368 595 1202173 3122676 71.019156049352 7271.018196049351 13 0.014996049351 0.022356049352 0.235268641573 0.0042984240698216
497	258963 595 1211057 3132156 73.015956052834 7273.017556052834 13 0.015956052834 0.031172052834 0.277252686841 0.0062381349766511
498	259558 595 1197162 3117727 70.014076041507 7270.016636041507 13 0.010876041507 0.016636041507 0.167308539598 0.002186656017097
499	260153 595 1199503 3118942 70.061036080338 7270.024876080338 13 0.019756080339 0.061036080338 0.376005044398 0.012899995727054
500	260748 589 1212260 3133368 73.023524073571 7273.04560407357 13 0.021676073571 0.049764073571 0.41973295642 0.01479391707207
501	261337 595 1198923 3120085 70.029636104025 7270.032124104026 13 0.023556104024 0.051644104027 0.396925352341 0.012734946149201
502	261932 595 1205742 3127468 72.023276066046 7272.028324066046 13 0.020716066045 0.054420066046 0.365940858592 0.011404100641428
505	262527 595 1208434 3129281 72.062916079981 7272.058508076169 13 0.020076076169 0.062916079981 0.500932994002 0.022590163014198
506	263122 595 1207831 3128069 72.051284102969 7272.031804099158 13 0.026116099158 0.077812099157 0.585141292857 0.029421459616926
507	263717 577 1214018 3134545 73.06828408872 7273.057332088719 13 0.02515608872 0.077812088719 0.580277153356 0.029165743491871
