version 2
run AODVScenario_1f-46-20121121-11:54:06-3608
attr configname AODVScenario_1f
attr datetime 20121121-11:54:06
attr experiment AODVScenario_1f
attr inifile AODV.ini
attr iterationvars $numNodes=96
attr iterationvars2 "$numNodes=96, $repetition=0"
attr measurement $numNodes=96
attr network csma802154net
attr numNodes 96
attr processid 3608
attr repetition 0
attr replication #0
attr resultdir results
attr runnumber 46
attr seedset 46

vector 395  csma802154net.dataCentricNetworkMan  RREQPacketFrequency  ETV
vector 396  csma802154net.dataCentricNetworkMan  RERRPacketFrequency  ETV
vector 397  csma802154net.dataCentricNetworkMan  DiscoveryPacketFrequency  ETV
vector 398  csma802154net.dataCentricNetworkMan  RegisterPacketFrequency  ETV
vector 399  csma802154net.dataCentricNetworkMan  RReplyPacketFrequency  ETV
vector 400  csma802154net.dataCentricNetworkMan  AODVDataPacketFrequency  ETV
vector 407  csma802154net.dataCentricNetworkMan  pendingRegistrationVector  ETV
vector 406  csma802154net.dataCentricNetworkMan  pendingRREQVector  ETV
vector 404  csma802154net.dataCentricNetworkMan  PendingDataPacketsVector  ETV
vector 410  csma802154net.fixhost[2].udpApp  "End-to-end delay"  ETV
vector 392  csma802154net.dataCentricNetworkMan  dataPacketE2EDelay  ETV
vector 428  csma802154net.fixhost[20].udpApp  "End-to-end delay"  ETV
vector 413  csma802154net.fixhost[5].udpApp  "End-to-end delay"  ETV
vector 422  csma802154net.fixhost[14].udpApp  "End-to-end delay"  ETV
vector 417  csma802154net.fixhost[9].udpApp  "End-to-end delay"  ETV
vector 423  csma802154net.fixhost[15].udpApp  "End-to-end delay"  ETV
vector 416  csma802154net.fixhost[8].udpApp  "End-to-end delay"  ETV
vector 412  csma802154net.fixhost[4].udpApp  "End-to-end delay"  ETV
vector 415  csma802154net.fixhost[7].udpApp  "End-to-end delay"  ETV
vector 420  csma802154net.fixhost[12].udpApp  "End-to-end delay"  ETV
vector 429  csma802154net.fixhost[21].udpApp  "End-to-end delay"  ETV
vector 436  csma802154net.fixhost[28].udpApp  "End-to-end delay"  ETV
392	773829	70.013756038224	0.013756038224
392	774750	70.022956093604	0.022956093604
392	775220	70.031452074055	0.031452074055
392	779301	71.032124104653	0.032124104653
392	780284	71.056372081593	0.056372081593
392	781294	71.066284145576	0.066284145576
392	784929	72.030876141319	0.030876141319
392	786449	72.056684142961	0.056684142961
392	786947	72.061124170534	0.061124170534
392	790603	73.030556093889	0.030556093889
392	793086	73.049212160475	0.049212160475
392	793593	73.055572184985	0.055572184985
392	912570	670.016316038226	0.016316038226
392	913483	670.024556093607	0.024556093607
392	913951	670.029676074058	0.029676074058
392	918826	671.038764145576	0.038764145576
392	919295	671.042220104653	0.042220104653
392	919802	671.051324081594	0.051324081594
392	923448	672.028316141318	0.028316141318
392	924463	672.037844119372	0.037844119372
392	925465	672.045732141634	0.045732141634
392	929321	673.033116093889	0.033116093889
392	930918	673.060524127563	0.060524127563
392	932529	673.097460167287	0.097460167287
392	1051506	1270.015036038226	0.015036038226
392	1052423	1270.023596093607	0.023596093607
392	1052891	1270.026724074058	0.026724074058
392	1056469	1271.029316104653	0.029316104653
392	1058000	1271.041036160467	0.041036160467
392	1058496	1271.044772141144	0.044772141144
392	1061898	1272.022596086461	0.022596086461
392	1064083	1272.059460118046	0.059460118046
392	1064590	1272.083388141319	0.083388141319
392	1068452	1273.033116093889	0.033116093889
392	1070935	1273.071324190681	0.071324190681
392	1071443	1273.078644215191	0.078644215191
392	1190515	1870.014076038226	0.014076038226
392	1191447	1870.022316074058	0.022316074058
392	1192123	1870.049124093607	0.049124093607
392	1195494	1871.027716081593	0.027716081593
392	1196441	1871.049084104652	0.049084104652
392	1197923	1871.061412145574	0.061412145574
392	1201582	1872.027076086461	0.027076086461
392	1202587	1872.034004118045	0.034004118045
392	1203563	1872.040012141319	0.040012141319
392	1207225	1873.028956093888	0.028956093888
392	1209155	1873.039724127562	0.039724127562
392	1210174	1873.046724167286	0.046724167286
392	1329150	2470.011836038225	0.011836038225
392	1330067	2470.019116093606	0.019116093606
392	1330535	2470.024164074057	0.024164074057
392	1334274	2471.026116081592	0.026116081592
392	1334863	2471.031164104651	0.031164104651
392	1336346	2471.058924145574	0.058924145574
392	1339968	2472.02483608646	0.02483608646
392	1340952	2472.032404141318	0.032404141318
392	1341964	2472.047620118044	0.047620118044
392	1346575	2473.051596159713	0.051596159713
392	1347590	2473.062756187073	0.062756187073
392	1348609	2473.071924224091	0.071924224091
392	1467585	3070.015996038226	0.015996038226
392	1468503	3070.023596093607	0.023596093607
392	1468971	3070.029284074058	0.029284074058
392	1473285	3071.029956104653	0.029956104653
392	1474286	3071.036916145575	0.036916145575
392	1474785	3071.053564081594	0.053564081594
392	1478435	3072.031196141318	0.031196141318
392	1479954	3072.045164142959	0.045164142959
392	1480451	3072.049604170532	0.049604170532
392	1484583	3073.030236093887	0.030236093887
392	1486039	3073.03588412756	0.03588412756
392	1487054	3073.041604167284	0.041604167284
392	1606126	3670.012796038226	0.012796038226
392	1607040	3670.020716093607	0.020716093607
392	1607507	3670.023596074058	0.023596074058
392	1611098	3671.023556104653	0.023556104653
392	1613265	3671.057004145576	0.057004145576
392	1613764	3671.073972081594	0.073972081594
392	1617922	3672.036244141318	0.036244141318
392	1618425	3672.038484119372	0.038484119372
392	1619427	3672.049644141633	0.049644141633
392	1624039	3673.040396159712	0.040396159712
392	1625559	3673.049916217278	0.049916217278
392	1626067	3673.056596241788	0.056596241788
392	1745043	4270.014076038225	0.014076038225
392	1745961	4270.022636093606	0.022636093606
392	1746429	4270.025764074057	0.025764074057
392	1750073	4271.027716081593	0.027716081593
392	1750550	4271.029884104651	0.029884104651
392	1752032	4271.041644145573	0.041644145573
392	1756207	4272.03531614296	0.03531614296
392	1757181	4272.041292141316	0.041292141316
392	1757689	4272.046404170532	0.046404170532
392	1761794	4273.029596093889	0.029596093889
392	1763248	4273.036524127559	0.036524127559
392	1764267	4273.045444167283	0.045444167283
392	1883243	4870.013116038226	0.013116038226
392	1884179	4870.021036074058	0.021036074058
392	1884642	4870.023524093607	0.023524093607
392	1888026	4871.028676081592	0.028676081592
392	1888734	4871.032444104651	0.032444104651
392	1890212	4871.044452145574	0.044452145574
392	1893396	4872.028036086461	0.028036086461
392	1894852	4872.038484141319	0.038484141319
392	1895863	4872.045700118042	0.045700118042
392	1900473	4873.057676159712	0.057676159712
392	1901491	4873.066276187072	0.066276187072
392	1902506	4873.07192422409	0.07192422409
392	2021578	5470.015676038226	0.015676038226
392	2022511	5470.024876074058	0.024876074058
392	2022978	5470.030884093606	0.030884093606
392	2027308	5471.028604104653	0.028604104653
392	2028313	5471.034676145575	0.034676145575
392	2028812	5471.055660081593	0.055660081593
392	2032483	5472.02675608646	0.02675608646
392	2033465	5472.031764141318	0.031764141318
392	2034472	5472.038340118045	0.038340118045
392	2039083	5473.038796159711	0.038796159711
392	2040607	5473.051836217277	0.051836217277
392	2041114	5473.058836241787	0.058836241787
392	2160090	6070.012156038226	0.012156038226
392	2161022	6070.020076074058	0.020076074058
392	2161483	6070.021996093607	0.021996093607
392	2164756	6071.024836081594	0.024836081594
392	2166589	6071.039404145574	0.039404145574
392	2167769	6071.073188104653	0.073188104653
392	2171910	6072.029596141318	0.029596141318
392	2172420	6072.032476119372	0.032476119372
392	2173418	6072.038516141633	0.038516141633
392	2178028	6073.041036159712	0.041036159712
392	2179042	6073.049884187072	0.049884187072
392	2180061	6073.05713222409	0.05713222409
392	2299037	6670.011196038226	0.011196038226
392	2299957	6670.018796093606	0.018796093606
392	2300427	6670.025372074055	0.025372074055
392	2303812	6671.026756081594	0.026756081594
392	2304956	6671.051964104652	0.051964104652
392	2306443	6671.087012145576	0.087012145576
392	2310538	6672.053204141319	0.053204141319
392	2311553	6672.063692119372	0.063692119372
392	2312551	6672.071652141633	0.071652141633
392	2317159	6673.038476159712	0.038476159712
392	2318681	6673.051196217278	0.051196217278
392	2319188	6673.057556241788	0.057556241788
392	2438260	7270.012476038225	0.012476038225
392	2439174	7270.021036093606	0.021036093606
392	2439642	7270.025516074057	0.025516074057
392	2442930	7271.025476081592	0.025476081592
392	2443758	7271.02956410465	0.02956410465
392	2445236	7271.039084145573	0.039084145573
392	2449106	7272.030556119373	0.030556119373
392	2450104	7272.037484141634	0.037484141634
392	2451084	7272.055444141319	0.055444141319
392	2456223	7273.048036187073	0.048036187073
392	2456730	7273.050884159713	0.050884159713
392	2457741	7273.06225222409	0.06225222409
395	761	1.005	1
395	768	1.01	0
395	1495	1.018579361349	93
395	2332	1.023579361349	45
395	4645	1.028579361349	109
395	6601	1.033579361349	134
395	9032	1.038579361349	100
395	11421	1.043579361349	88
395	13004	1.048579361349	64
395	14624	1.053579361349	76
395	15979	1.058579361349	61
395	17199	1.063579361349	83
395	18303	1.068579361349	55
395	19658	1.073579361349	90
395	20947	1.078579361349	100
395	20951	1.083579361349	0
395	21714	1.091129640459	72
395	22486	1.096129640459	54
395	23113	1.101129640459	68
395	23117	1.106129640459	0
395	24156	1.114222000566	91
395	24531	1.119222000566	34
395	24935	1.124222000566	42
395	25303	1.129222000566	35
395	25409	1.134222000566	0
395	25705	1.139408951725	41
395	25706	1.144408951725	0
395	26077	1.155934288781	35
395	26081	1.160934288781	0
395	26524	1.168559908576	50
395	26525	1.173559908576	0
395	26971	1.209131218587	50
395	26972	1.214131218587	0
395	35319	43.505	1
395	35431	43.51	0
395	36650	43.5164844386	18
395	38002	43.5214844386	0
395	38973	43.5264844386	0
395	39800	43.5314844386	0
395	40263	43.5364844386	0
395	41299	43.544370790791	0
395	42167	43.549370790791	0
395	42739	43.554370790791	0
395	43644	43.561175088647	0
395	44364	43.566175088647	0
395	45142	43.57134644604	0
395	45910	43.57634644604	0
395	46501	43.58134644604	0
395	46860	43.58634644604	0
395	48162	43.593910660571	0
395	48804	43.598910660571	0
395	49182	43.604719309529	0
395	49298	43.609719309529	0
395	52478	43.63287911153	0
395	53121	43.63787911153	0
395	55376	43.661114057566	0
395	56147	43.666114057566	0
395	56645	43.671635205865	0
395	57419	43.676635205865	0
395	58530	43.687379087147	0
395	58987	43.692379087147	0
395	59337	43.697379087147	0
395	59570	43.702379087147	0
395	60914	43.712663331347	0
395	61726	43.717663331347	0
395	62176	43.722663331347	0
395	62770	43.727663331347	0
395	64195	43.737314467471	0
395	64667	43.742314467471	0
395	65583	43.756276267988	0
395	66034	43.761276267988	0
395	66495	43.766276267988	0
395	66982	43.771276267988	0
395	67431	43.776276267988	0
395	68352	43.793872109882	0
395	68353	43.798872109882	0
395	68565	44.505	1
395	69582	44.51	33
395	70933	44.515	0
395	71998	44.52	0
395	72983	44.525	0
395	73672	44.53	0
395	74461	44.535	0
395	75595	44.540005317521	0
395	76521	44.545005317521	0
395	79134	44.558260821721	0
395	79950	44.563260821721	0
395	80852	44.568260821721	0
395	81799	44.573260821721	0
395	82269	44.578260821721	0
395	83393	44.583435214857	0
395	84110	44.588435214857	0
395	85222	44.593435214857	0
395	85948	44.598435214857	0
395	87074	44.603435214857	0
395	88092	44.608435214857	0
395	89946	44.619774801704	0
395	90787	44.624774801704	0
395	91523	44.629774801704	0
395	92558	44.634774801704	0
395	93407	44.640483263108	0
395	94907	44.645483263108	0
395	96146	44.650483263108	0
395	97155	44.655483263108	0
395	98090	44.660483263108	0
395	100281	44.677612478985	0
395	101202	44.682612478985	0
395	101777	44.687612478985	0
395	102817	44.693637277987	0
395	103423	44.698637277987	0
395	104583	44.703970372812	0
395	105290	44.708970372812	0
395	106586	44.713970372812	0
395	107482	44.718970372812	0
395	108547	44.724621308571	0
395	109605	44.729621308571	0
395	110207	44.734621308571	0
395	110716	44.739621308571	0
395	111184	44.744621308571	0
395	111784	44.749621308571	0
395	112773	44.754621308571	0
395	113681	44.759621308571	0
395	114585	44.764621308571	0
395	115271	44.769621308571	0
395	115858	44.774621308571	0
395	116689	44.779621308571	0
395	117245	44.784621308571	0
395	118100	44.790639021181	0
395	118690	44.795639021181	0
395	119257	44.800639021181	0
395	119589	44.805639021181	0
395	119948	44.811763234948	0
395	120406	44.816763234948	0
395	121365	44.82969416559	0
395	121842	44.83469416559	0
395	122307	44.83969416559	0
395	122776	44.84885363435	0
395	122777	44.85385363435	0
395	123801	44.892628459045	0
395	124166	44.897628459045	0
395	124170	44.902628459045	0
395	124630	44.910052472294	0
395	125067	44.915052472294	0
395	125267	45.505	1
395	125274	45.51	0
395	126643	45.51838538853	21
395	127776	45.52338538853	0
395	128461	45.52838538853	0
395	128844	45.53338538853	0
395	129530	45.53838538853	0
395	130258	45.54338538853	0
395	131216	45.54838538853	0
395	132114	45.55338538853	0
395	132952	45.563886936041	0
395	133754	45.568886936041	0
395	134365	45.573886936041	0
395	134957	45.578886936041	0
395	135988	45.58624139024	0
395	136442	45.59124139024	0
395	138512	45.608072791721	0
395	138999	45.613072791721	0
395	139560	45.618072791721	0
395	142460	45.63727471841	0
395	143348	45.64227471841	0
395	144134	45.64727471841	0
395	145238	45.65227471841	0
395	145930	45.65727471841	0
395	146787	45.66227471841	0
395	148076	45.671650026367	0
395	148542	45.676650026367	0
395	149089	45.681650026367	0
395	149747	45.687168830371	0
395	150541	45.692168830371	0
395	151303	45.697168830371	0
395	152177	45.702168830371	0
395	153067	45.711562555476	0
395	153639	45.716562555476	0
395	153646	45.721562555476	0
395	154666	45.728789579049	0
395	155004	45.733789579049	0
395	155466	45.738789579049	0
395	156807	45.755078454485	0
395	156814	45.760078454485	0
395	157756	45.766911462049	0
395	157757	45.771911462049	0
395	158692	45.783689704736	0
395	158693	45.788689704736	0
395	159347	46.505	1
395	159354	46.51	0
395	161246	46.519138904623	31
395	163031	46.524138904623	0
395	164203	46.529138904623	0
395	165572	46.534138904623	0
395	166478	46.539138904623	0
395	167311	46.544138904623	0
395	168509	46.549138904623	0
395	170183	46.554671499165	0
395	170747	46.559671499165	0
395	172960	46.569356061619	0
395	174042	46.574356061619	0
395	175532	46.579356061619	0
395	176506	46.584356061619	0
395	177873	46.589356061619	0
395	178978	46.594356061619	0
395	180771	46.602376993604	0
395	182061	46.607376993604	0
395	182780	46.612376993604	0
395	184367	46.619873235831	0
395	185242	46.624873235831	0
395	186327	46.631137084308	0
395	187511	46.636137084308	0
395	188242	46.641137084308	0
395	189373	46.646137084308	0
395	190602	46.651137084308	0
395	191280	46.656137084308	0
395	192307	46.661137084308	0
395	193012	46.666137084308	0
395	194353	46.675978971379	0
395	194819	46.680978971379	0
395	195978	46.686667791171	0
395	196936	46.691667791171	0
395	197629	46.696667791171	0
395	198301	46.703454271859	0
395	198970	46.708454271859	0
395	199820	46.713454271859	0
395	200920	46.718454271859	0
395	202276	46.727238207562	0
395	203150	46.732238207562	0
395	203836	46.738562340521	0
395	204507	46.743562340521	0
395	206816	46.756861446798	0
395	207489	46.761861446798	0
395	208062	46.766861446798	0
395	209289	46.774071090049	0
395	210320	46.779071090049	0
395	211263	46.784071090049	0
395	211498	46.789071090049	0
395	212305	46.794071090049	0
395	213087	46.799071090049	0
395	213979	46.804071090049	0
395	214344	46.809177331635	0
395	214810	46.814177331635	0
395	215614	46.819177331635	0
395	216331	46.824177331635	0
395	217263	46.829177331635	0
395	217810	46.834177331635	0
395	218268	46.846338991442	0
395	218745	46.851338991442	0
395	219221	46.856338991442	0
395	219960	46.867188386918	0
395	220200	46.872188386918	0
395	221320	46.880711120445	0
395	221321	46.885711120445	0
395	224148	46.979567653204	0
395	224289	46.984567653204	0
395	224495	47.505	1
395	224873	47.51	30
395	226269	47.515	0
395	227836	47.52	0
395	229616	47.525617459522	0
395	230738	47.530617459522	0
395	231566	47.535617459522	0
395	232385	47.540617459522	0
395	233671	47.545617459522	0
395	234397	47.550617459522	0
395	235571	47.555617459522	0
395	236509	47.560617459522	0
395	237556	47.565617459522	0
395	238291	47.570617459522	0
395	238992	47.575617459522	0
395	240019	47.580617459522	0
395	241133	47.585617459522	0
395	242260	47.590617459522	0
395	244042	47.595878926488	0
395	244967	47.600878926488	0
395	246464	47.608449485846	0
395	247725	47.613449485846	0
395	248724	47.618449485846	0
395	249967	47.623449485846	0
395	250978	47.628449485846	0
395	251567	47.633449485846	0
395	252392	47.638449485846	0
395	253333	47.643449485846	0
395	254346	47.648449485846	0
395	255023	47.653449485846	0
395	255731	47.658449485846	0
395	256647	47.663449485846	0
395	257644	47.668449485846	0
395	260473	47.684998697362	0
395	261040	47.689998697362	0
395	261427	47.694998697362	0
395	261993	47.699998697362	0
395	262936	47.706672685845	0
395	263594	47.711672685845	0
395	264375	47.716672685845	0
395	265299	47.724576725369	0
395	265890	47.729576725369	0
395	266458	47.734576725369	0
395	267249	47.739576725369	0
395	267690	47.744576725369	0
395	268712	47.750064712032	0
395	268713	47.755064712032	0
395	269632	47.764259066211	0
395	270079	47.769259066211	0
395	270556	47.774259066211	0
395	271021	47.779259066211	0
395	271689	47.784259066211	0
395	271798	47.789259066211	0
395	272172	47.795715675144	0
395	272173	47.800715675144	0
395	272750	47.810704698892	0
395	273125	47.815704698892	0
395	273129	47.820704698892	0
395	273604	47.827799263545	0
395	274052	47.832799263545	0
395	274866	47.87306471073	0
395	275343	47.87806471073	0
395	275973	47.88306471073	0
395	276430	47.88806471073	0
395	276741	48.505	1
395	277404	48.51	23
395	278946	48.515	0
395	279883	48.52	0
395	280717	48.525	0
395	281496	48.53	0
395	282664	48.535	0
395	283817	48.54	0
395	284540	48.545	0
395	284781	48.55	0
395	285382	48.555	0
395	286587	48.56	0
395	287678	48.565	0
395	288306	48.57	0
395	289020	48.575	0
395	289763	48.58	0
395	290566	48.585	0
395	291845	48.59	0
395	293238	48.595	0
395	294731	48.6	0
395	295556	48.606713112945	0
395	296019	48.611713112945	0
395	296912	48.616713112945	0
395	297838	48.621713112945	0
395	298491	48.626713112945	0
395	299360	48.632037385045	0
395	300274	48.637037385045	0
395	301082	48.642037385045	0
395	301912	48.648581139644	0
395	302482	48.653581139644	0
395	303529	48.660190150585	0
395	304534	48.665190150585	0
395	305101	48.670190150585	0
395	307655	48.693870136461	0
395	308110	48.698870136461	0
395	308803	48.703870136461	0
395	309378	48.711788691119	0
395	310240	48.716788691119	0
395	311137	48.721788691119	0
395	312160	48.730349481941	0
395	312391	48.735349481941	0
395	314366	48.751983565116	0
395	315019	48.756983565116	0
395	316074	48.761983565116	0
395	316629	48.766983565116	0
395	317905	48.783249695212	0
395	318931	48.788249695212	0
395	319824	48.793249695212	0
395	320276	48.798249695212	0
395	321776	48.8277791974	0
395	322265	48.8327791974	0
395	322734	48.8377791974	0
395	323544	48.8427791974	0
395	324002	48.852509352349	0
395	324003	48.857509352349	0
395	324221	49.505	1
395	324333	49.51	0
395	326100	49.515673293722	34
395	327419	49.520673293722	0
395	328595	49.525673293722	0
395	330040	49.530673293722	0
395	330979	49.535673293722	0
395	331584	49.540673293722	0
395	332993	49.545673293722	0
395	334064	49.550673293722	0
395	334681	49.555673293722	0
395	335399	49.560673293722	0
395	336490	49.565673293722	0
395	337991	49.570673293722	0
395	339007	49.575673293722	0
395	339917	49.580673293722	0
395	343698	49.603228090919	0
395	344439	49.608228090919	0
395	345566	49.613228090919	0
395	346530	49.618228090919	0
395	348454	49.632027059538	0
395	349321	49.637027059538	0
395	350087	49.642027059538	0
395	351416	49.647027059538	0
395	352154	49.652027059538	0
395	353666	49.665324100623	0
395	354708	49.670324100623	0
395	355660	49.675324100623	0
395	356690	49.680324100623	0
395	359035	49.693842383214	0
395	360297	49.698842383214	0
395	361221	49.703842383214	0
395	362932	49.71494441747	0
395	363500	49.71994441747	0
395	364484	49.725692802348	0
395	365481	49.730692802348	0
395	367684	49.740787531753	0
395	368043	49.745787531753	0
395	369957	49.755147078744	0
395	371113	49.760147078744	0
395	372166	49.765147078744	0
395	372768	49.770147078744	0
395	373507	49.775147078744	0
395	374658	49.780147078744	0
395	375361	49.785147078744	0
395	376461	49.791554089159	0
395	376571	49.796554089159	0
395	378093	49.806781059481	0
395	378924	49.811781059481	0
395	379377	49.816781059481	0
395	380831	49.826219546883	0
395	381540	49.831219546883	0
395	381898	49.836219546883	0
395	382349	49.841219546883	0
395	382831	49.856414744471	0
395	383176	49.861414744471	0
395	383779	49.866414744471	0
395	384257	49.871414744471	0
395	384725	49.876414744471	0
395	385200	49.881414744471	0
395	385657	49.886414744471	0
395	386359	49.914612140576	0
395	386860	49.919612140576	0
395	387324	49.924612140576	0
395	387920	49.940312368074	0
395	388298	49.945312368074	0
395	388299	49.950312368074	0
395	388986	50.008238241372	0
395	388987	50.013238241372	0
395	389027	50.505	1
395	389034	50.51	0
395	390780	50.519795143997	38
395	392333	50.524795143997	0
395	394067	50.533402283982	0
395	395110	50.538402283982	0
395	397004	50.546361310152	0
395	397954	50.551361310152	0
395	399360	50.556361310152	0
395	400351	50.561361310152	0
395	401323	50.566361310152	0
395	402755	50.571852264209	0
395	404021	50.576852264209	0
395	405432	50.58654369311	0
395	406294	50.59154369311	0
395	407123	50.59654369311	0
395	411917	50.622341023626	0
395	412752	50.627341023626	0
395	414574	50.632341023626	0
395	416304	50.639264160275	0
395	417109	50.644264160275	0
395	418083	50.649264160275	0
395	419164	50.654264160275	0
395	420300	50.659264160275	0
395	421508	50.664264160275	0
395	424037	50.674514575992	0
395	424611	50.679514575992	0
395	426097	50.68502498407	0
395	427209	50.69002498407	0
395	428283	50.69502498407	0
395	429158	50.70002498407	0
395	431074	50.710461868976	0
395	432257	50.715461868976	0
395	433318	50.720461868976	0
395	434373	50.725461868976	0
395	435091	50.730461868976	0
395	436517	50.738754712873	0
395	437583	50.743754712873	0
395	438623	50.748754712873	0
395	439562	50.753754712873	0
395	440738	50.758754712873	0
395	441803	50.763754712873	0
395	442646	50.768754712873	0
395	443337	50.773754712873	0
395	444584	50.779781643227	0
395	445409	50.784781643227	0
395	445898	50.789781643227	0
395	446352	50.794781643227	0
395	447551	50.803455721877	0
395	448592	50.808455721877	0
395	449326	50.813455721877	0
395	449901	50.818455721877	0
395	451197	50.828730357066	0
395	451908	50.833730357066	0
395	452464	50.838730357066	0
395	453717	50.845424243743	0
395	454312	50.850424243743	0
395	454822	50.855424243743	0
395	456853	50.865336250331	0
395	456964	50.870336250331	0
395	457841	50.875336250331	0
395	458534	50.880336250331	0
395	459213	50.885336250331	0
395	459457	50.890336250331	0
395	460788	50.911170212868	0
395	461133	50.916170212868	0
395	461618	50.93021225468	0
395	461725	50.93521225468	0
395	462099	50.940732225221	0
395	462574	50.945732225221	0
395	462575	50.950732225221	0
395	463172	50.960609051428	0
395	464057	50.965609051428	0
395	464310	50.970609051428	0
395	465030	50.983954596114	0
395	465031	50.988954596114	0
395	465252	51.505	1
395	465364	51.51	0
395	467532	51.516204728975	46
395	469382	51.521204728975	0
395	470944	51.526204728975	0
395	471866	51.531204728975	0
395	474213	51.539009587425	0
395	475556	51.544009587425	0
395	476874	51.549009587425	0
395	477875	51.554009587425	0
395	478993	51.559009587425	0
395	479820	51.564009587425	0
395	481179	51.569305462677	0
395	482150	51.574305462677	0
395	485325	51.587136429221	0
395	486168	51.592136429221	0
395	488448	51.601311635752	0
395	489410	51.606311635752	0
395	490416	51.611311635752	0
395	491848	51.616311635752	0
395	492941	51.621311635752	0
395	493913	51.626311635752	0
395	495207	51.631311635752	0
395	496332	51.637793459663	0
395	497673	51.642793459663	0
395	498745	51.647793459663	0
395	502254	51.664077257794	0
395	502990	51.669077257794	0
395	503833	51.675184246127	0
395	504921	51.680184246127	0
395	506194	51.685184246127	0
395	507184	51.690184246127	0
395	508348	51.695184246127	0
395	513472	51.721199335976	0
395	515051	51.726199335976	0
395	516023	51.731199335976	0
395	516990	51.736199335976	0
395	518157	51.742386188868	0
395	519013	51.747386188868	0
395	520433	51.753584414495	0
395	521299	51.758584414495	0
395	522449	51.763584414495	0
395	523397	51.768584414495	0
395	524248	51.773584414495	0
395	525685	51.778584414495	0
395	526777	51.783584414495	0
395	528351	51.79040843856	0
395	529572	51.79540843856	0
395	530428	51.80040843856	0
395	531637	51.808861660229	0
395	532526	51.813861660229	0
395	534166	51.822199530355	0
395	535086	51.827199530355	0
395	535816	51.832199530355	0
395	536697	51.837199530355	0
395	538649	51.847164211641	0
395	539458	51.852164211641	0
395	540990	51.857164211641	0
395	541932	51.862164211641	0
395	543108	51.86864105495	0
395	543846	51.87364105495	0
395	544564	51.87864105495	0
395	545985	51.883865073982	0
395	546975	51.888865073982	0
395	547912	51.893865073982	0
395	549000	51.899339274419	0
395	549825	51.904339274419	0
395	552233	51.918569176765	0
395	552879	51.923569176765	0
395	553453	51.928569176765	0
395	554085	51.934902557452	0
395	554200	51.939902557452	0
395	555561	51.950702436378	0
395	556271	51.955702436378	0
395	556977	51.960702436378	0
395	557591	51.965702436378	0
395	558481	51.970702436378	0
395	559431	51.975702436378	0
395	560035	51.980702436378	0
395	560251	51.985702436378	0
395	561122	51.995243010023	0
395	561425	52.000243010023	0
395	562318	52.006144230449	0
395	563109	52.011144230449	0
395	563504	52.016579359908	0
395	563505	52.021579359908	0
395	564486	52.04357396134	0
395	564487	52.04857396134	0
395	564531	52.505	1
395	564882	52.51	29
395	565788	52.515	0
395	567766	52.52	0
395	569240	52.525	0
395	570309	52.53	0
395	571148	52.535	0
395	572117	52.54	0
395	572982	52.545	0
395	573973	52.55	0
395	574562	52.555	0
395	575893	52.561242531862	0
395	576940	52.566242531862	0
395	577924	52.571242531862	0
395	578902	52.576242531862	0
395	580077	52.581242531862	0
395	581168	52.586242531862	0
395	582728	52.59753130401	0
395	583695	52.60253130401	0
395	584666	52.60753130401	0
395	585305	52.61253130401	0
395	586598	52.61753130401	0
395	587228	52.62253130401	0
395	588536	52.630010652865	0
395	589385	52.635010652865	0
395	590074	52.640010652865	0
395	591392	52.647404247587	0
395	592599	52.652404247587	0
395	593664	52.657404247587	0
395	594653	52.662404247587	0
395	595345	52.667404247587	0
395	596948	52.676302345683	0
395	597566	52.681302345683	0
395	598823	52.686302345683	0
395	599507	52.691302345683	0
395	600824	52.700547323744	0
395	601871	52.705547323744	0
395	602923	52.710547323744	0
395	603636	52.715547323744	0
395	605038	52.722633692749	0
395	605546	52.727633692749	0
395	606495	52.732633692749	0
395	607677	52.737633692749	0
395	608287	52.742633692749	0
395	609349	52.747633692749	0
395	610055	52.752633692749	0
395	610879	52.757633692749	0
395	612021	52.765642662175	0
395	612884	52.770642662175	0
395	613002	52.775642662175	0
395	613977	52.780904578001	0
395	615008	52.785904578001	0
395	615490	52.790904578001	0
395	615958	52.795904578001	0
395	617485	52.8159600804	0
395	617854	52.8209600804	0
395	617860	52.8259600804	0
395	618801	52.83308458246	0
395	619362	52.83808458246	0
395	619843	52.84308458246	0
395	620239	52.84808458246	0
395	620741	52.85308458246	0
395	620742	52.85808458246	0
395	621715	52.969401777591	0
395	621716	52.974401777591	0
395	622687	52.990161788522	0
395	622691	52.995161788522	0
395	622921	53.505	1
395	622928	53.51	0
395	625253	53.519548495017	38
395	627032	53.524548495017	0
395	628756	53.529548495017	0
395	629993	53.534548495017	0
395	630818	53.539548495017	0
395	632476	53.544779366983	0
395	634057	53.549779366983	0
395	635154	53.554779366983	0
395	636814	53.559779366983	0
395	638352	53.564779366983	0
395	639439	53.569779366983	0
395	640499	53.574779366983	0
395	641705	53.579779366983	0
395	643366	53.584779366983	0
395	644993	53.589779366983	0
395	647384	53.601733597994	0
395	648125	53.606733597994	0
395	649250	53.611733597994	0
395	650395	53.616733597994	0
395	652153	53.623014123406	0
395	653117	53.628014123406	0
395	654221	53.633014123406	0
395	655631	53.638014123406	0
395	659146	53.654413691133	0
395	660550	53.659413691133	0
395	661577	53.664413691133	0
395	662846	53.669413691133	0
395	663801	53.674413691133	0
395	665300	53.680079783484	0
395	666605	53.685079783484	0
395	667842	53.691811962239	0
395	669296	53.696811962239	0
395	670571	53.701811962239	0
395	673765	53.717441732258	0
395	674852	53.722441732258	0
395	675738	53.727441732258	0
395	677661	53.737541704549	0
395	678220	53.742541704549	0
395	679288	53.747541704549	0
395	680294	53.752541704549	0
395	681624	53.757541704549	0
395	682724	53.762541704549	0
395	684051	53.767541704549	0
395	685031	53.772541704549	0
395	685641	53.777541704549	0
395	686779	53.782541704549	0
395	688239	53.787541704549	0
395	688490	53.792541704549	0
395	690040	53.801903279675	0
395	690765	53.806903279675	0
395	691454	53.811903279675	0
395	692898	53.820584707739	0
395	693625	53.825584707739	0
395	694321	53.830584707739	0
395	695247	53.837672470157	0
395	695820	53.842672470157	0
395	697998	53.857999611867	0
395	699444	53.862999611867	0
395	700669	53.867999611867	0
395	701274	53.872999611867	0
395	702114	53.877999611867	0
395	703068	53.882999611867	0
395	704030	53.887999611867	0
395	704537	53.892999611867	0
395	705046	53.897999611867	0
395	705154	53.902999611867	0
395	706055	53.907999611867	0
395	706559	53.912999611867	0
395	707032	53.917999611867	0
395	707264	54.505	1
395	707926	54.51	28
395	709739	54.515	0
395	711048	54.52	0
395	711890	54.525248798493	0
395	712860	54.530248798493	0