version 2
run AODVScenario_1f-28-20121121-11:45:29-3884
attr configname AODVScenario_1f
attr datetime 20121121-11:45:29
attr experiment AODVScenario_1f
attr inifile AODV.ini
attr iterationvars $numNodes=78
attr iterationvars2 "$numNodes=78, $repetition=0"
attr measurement $numNodes=78
attr network csma802154net
attr numNodes 78
attr processid 3884
attr repetition 0
attr replication #0
attr resultdir results
attr runnumber 28
attr seedset 28

vector 323  csma802154net.dataCentricNetworkMan  RREQPacketFrequency  ETV
vector 324  csma802154net.dataCentricNetworkMan  RERRPacketFrequency  ETV
vector 325  csma802154net.dataCentricNetworkMan  DiscoveryPacketFrequency  ETV
vector 326  csma802154net.dataCentricNetworkMan  RegisterPacketFrequency  ETV
vector 327  csma802154net.dataCentricNetworkMan  RReplyPacketFrequency  ETV
vector 328  csma802154net.dataCentricNetworkMan  AODVDataPacketFrequency  ETV
vector 335  csma802154net.dataCentricNetworkMan  pendingRegistrationVector  ETV
vector 334  csma802154net.dataCentricNetworkMan  pendingRREQVector  ETV
vector 332  csma802154net.dataCentricNetworkMan  PendingDataPacketsVector  ETV
vector 359  csma802154net.fixhost[23].udpApp  "End-to-end delay"  ETV
vector 320  csma802154net.dataCentricNetworkMan  dataPacketE2EDelay  ETV
vector 360  csma802154net.fixhost[24].udpApp  "End-to-end delay"  ETV
vector 343  csma802154net.fixhost[7].udpApp  "End-to-end delay"  ETV
vector 344  csma802154net.fixhost[8].udpApp  "End-to-end delay"  ETV
vector 347  csma802154net.fixhost[11].udpApp  "End-to-end delay"  ETV
vector 339  csma802154net.fixhost[3].udpApp  "End-to-end delay"  ETV
vector 340  csma802154net.fixhost[4].udpApp  "End-to-end delay"  ETV
vector 341  csma802154net.fixhost[5].udpApp  "End-to-end delay"  ETV
vector 346  csma802154net.fixhost[10].udpApp  "End-to-end delay"  ETV
vector 350  csma802154net.fixhost[14].udpApp  "End-to-end delay"  ETV
vector 349  csma802154net.fixhost[13].udpApp  "End-to-end delay"  ETV
320	541571	70.013436042379	0.013436042379
320	541957	70.016916073548	0.016916073548
320	544328	71.022636073519	0.022636073519
320	545116	71.051964105068	0.051964105068
320	546301	71.067172137335	0.067172137335
320	548647	72.021996067804	0.021996067804
320	550216	72.062412116761	0.062412116761
320	550997	72.071012143487	0.071012143487
320	554767	73.03087611084	0.03087611084
320	555270	73.033716136114	0.033716136114
320	557191	73.088932141398	0.088932141398
320	653864	670.014076042381	0.014076042381
320	654250	670.017556073551	0.017556073551
320	656621	671.02135607352	0.02135607352
320	657571	671.051324105069	0.051324105069
320	658760	671.084452137336	0.084452137336
320	661321	672.021676067803	0.021676067803
320	662503	672.035924116759	0.035924116759
320	663280	672.043244143484	0.043244143484
320	666849	673.03119611084	0.03119611084
320	668188	673.062052136114	0.062052136114
320	669521	673.094620141399	0.094620141399
320	766194	1270.012796042382	0.012796042382
320	766580	1270.018196073552	0.018196073552
320	768951	1271.02423607352	0.02423607352
320	769739	1271.053564105069	0.053564105069
320	770924	1271.066212137335	0.066212137335
320	774067	1272.025444067803	0.025444067803
320	774454	1272.027964091918	0.027964091918
320	776019	1272.059140112496	0.059140112496
320	778640	1273.02771608747	0.02771608747
320	780244	1273.038804108111	0.038804108111
320	781071	1273.044844136113	0.044844136113
320	877819	1870.013756042382	0.013756042382
320	878205	1870.017236073552	0.017236073552
320	880805	1871.025124073518	0.025124073518
320	882003	1871.040044137335	0.040044137335
320	882396	1871.050540105067	0.050540105067
320	884730	1872.019756067804	0.019756067804
320	886481	1872.05224411676	0.05224411676
320	887267	1872.081252143487	0.081252143487
320	890652	1873.034036136113	0.034036136113
320	891485	1873.042252110838	0.042252110838
320	892322	1873.055012141397	0.055012141397
320	988995	2470.012156042382	0.012156042382
320	989381	2470.015636073552	0.015636073552
320	991590	2471.020396073518	0.020396073518
320	992370	2471.030204105068	0.030204105068
320	993554	2471.043884137333	0.043884137333
320	996906	2472.027684067804	0.027684067804
320	997699	2472.043244147751	0.043244147751
320	998082	2472.048004175341	0.048004175341
320	1000863	2473.028036087468	0.028036087468
320	1002091	2473.057364108109	0.057364108109
320	1003302	2473.068132136113	0.068132136113
320	1099973	3070.015676042382	0.015676042382
320	1100358	3070.019156073552	0.019156073552
320	1102958	3071.02512407352	0.02512407352
320	1103359	3071.030204105069	0.030204105069
320	1104544	3071.050532137336	0.050532137336
320	1106885	3072.025836067804	0.025836067804
320	1108458	3072.065932116761	0.065932116761
320	1109238	3072.074532143487	0.074532143487
320	1113413	3073.056364136114	0.056364136114
320	1114022	3073.06138011084	0.06138011084
320	1115267	3073.089180141398	0.089180141398
320	1212018	3670.013756042381	0.013756042381
320	1212404	3670.018516073551	0.018516073551
320	1215327	3671.029316105068	0.029316105068
320	1215737	3671.050084073519	0.050084073519
320	1216926	3671.062764137335	0.062764137335
320	1219648	3672.025476091919	0.025476091919
320	1220449	3672.037852067804	0.037852067804
320	1222017	3672.054164112497	0.054164112497
320	1225827	3673.034324110839	0.034324110839
320	1226423	3673.040364136113	0.040364136113
320	1227258	3673.071332141397	0.071332141397
320	1323931	4270.014076042382	0.014076042382
320	1324317	4270.019156073552	0.019156073552
320	1326524	4271.01943607352	0.01943607352
320	1327692	4271.028604105068	0.028604105068
320	1328491	4271.037484137334	0.037484137334
320	1332205	4272.033076147751	0.033076147751
320	1332604	4272.035292067803	0.035292067803
320	1332994	4272.03904417534	0.03904417534
320	1335617	4273.026436087468	0.026436087468
320	1337400	4273.040332108108	0.040332108108
320	1338235	4273.06806013611	0.06806013611
320	1434905	4870.011196042382	0.011196042382
320	1435291	4870.015316073552	0.015316073552
320	1437500	4871.02135607352	0.02135607352
320	1438283	4871.030204105068	0.030204105068
320	1439464	4871.041324137335	0.041324137335
320	1442585	4872.028676091919	0.028676091919
320	1443360	4872.034964112497	0.034964112497
320	1444165	4872.055132067804	0.055132067804
320	1446959	4873.03027608747	0.03027608747
320	1448763	4873.063052108111	0.063052108111
320	1449981	4873.092380136114	0.092380136114
320	1546730	5470.015356042382	0.015356042382
320	1547115	5470.019796073552	0.019796073552
320	1549713	5471.02320407352	0.02320407352
320	1550114	5471.028604105069	0.028604105069
320	1552033	5471.088860137335	0.088860137335
320	1554206	5472.022636067803	0.022636067803
320	1555770	5472.033404091918	0.033404091918
320	1556547	5472.039692112496	0.039692112496
320	1559933	5473.035316136114	0.035316136114
320	1560765	5473.04264411084	0.04264411084
320	1561602	5473.055404141399	0.055404141399
320	1658275	6070.013436042382	0.013436042382
320	1658661	6070.017876073552	0.017876073552
320	1661260	6071.02672407352	0.02672407352
320	1662453	6071.037876137335	0.037876137335
320	1663422	6071.066220105067	0.066220105067
320	1666568	6072.025372067803	0.025372067803
320	1666958	6072.029172091919	0.029172091919
320	1668129	6072.063372112497	0.063372112497
320	1671938	6073.03119611084	0.03119611084
320	1672430	6073.033076136114	0.033076136114
320	1673353	6073.062764141399	0.062764141399
320	1770026	6670.013436042381	0.013436042381
320	1770412	6670.018836073551	0.018836073551
320	1772620	6671.019756073519	0.019756073519
320	1773400	6671.029244105067	0.029244105067
320	1774585	6671.041644137334	0.041644137334
320	1777510	6672.027116067803	0.027116067803
320	1778788	6672.050612091919	0.050612091919
320	1779662	6672.059212118645	0.059212118645
320	1782661	6673.023236087469	0.023236087469
320	1784263	6673.03400410811	0.03400410811
320	1785094	6673.041004136112	0.041004136112
320	1881842	7270.013116042382	0.013116042382
320	1882228	7270.016596073552	0.016596073552
320	1884437	7271.02231607352	0.02231607352
320	1885217	7271.032764105068	0.032764105068
320	1886401	7271.044524137335	0.044524137335
320	1888747	7272.020716067804	0.020716067804
320	1890716	7272.06269214775	0.06269214775
320	1891101	7272.06969217534	0.06969217534
320	1893891	7273.026116087469	0.026116087469
320	1895531	7273.058644108111	0.058644108111
320	1896740	7273.069092136114	0.069092136114
323	827	1.005	19
323	1078	1.01	9
323	1760	1.015	47
323	2491	1.02	46
323	3433	1.025	44
323	5152	1.03	99
323	6916	1.035	46
323	8324	1.04	55
323	9862	1.045	70
323	11215	1.05	73
323	11882	1.055	34
323	12068	1.06	0
323	12699	1.065124389695	44
323	13422	1.070124389695	47
323	14065	1.075124389695	47
323	14687	1.080124389695	43
323	15471	1.085124389695	78
323	15867	1.090124389695	27
323	16105	1.095124389695	33
323	16455	1.100124389695	39
323	16456	1.105124389695	0
323	16766	1.114115916959	28
323	16767	1.119115916959	0
323	17102	1.128496248166	35
323	17103	1.133496248166	0
323	17408	1.163138465884	29
323	17409	1.168138465884	0
323	17694	1.187418885998	25
323	17695	1.192418885998	0
323	24569	43.505	1
323	25980	43.51	37
323	27631	43.515	0
323	28635	43.52	0
323	29747	43.525	0
323	29942	43.53	0
323	30531	43.535	0
323	33576	43.549277575684	0
323	34228	43.554277575684	0
323	34827	43.559277575684	0
323	35896	43.564277575684	0
323	39514	43.584310856993	0
323	40358	43.589310856993	0
323	41741	43.596255164176	0
323	42756	43.601255164176	0
323	44012	43.607212114908	0
323	45257	43.612212114908	0
323	47356	43.625321287114	0
323	48278	43.630321287114	0
323	50554	43.645926980968	0
323	51294	43.650926980968	0
323	52877	43.658477422407	0
323	53783	43.663477422407	0
323	55033	43.668893607912	0
323	55803	43.673893607912	0
323	56351	43.678893607912	0
323	57908	43.686628609669	0
323	58747	43.691628609669	0
323	59495	43.696628609669	0
323	60204	43.701628609669	0
323	60951	43.706628609669	0
323	61847	43.711628609669	0
323	62750	43.716628609669	0
323	63939	43.725779851095	0
323	64673	43.730779851095	0
323	65860	43.735779851095	0
323	66548	43.740779851095	0
323	67681	43.745779851095	0
323	68358	43.750779851095	0
323	69008	43.755779851095	0
323	69385	43.760779851095	0
323	70646	43.76627132853	0
323	71403	43.77127132853	0
323	72419	43.77627132853	0
323	73031	43.78127132853	0
323	73790	43.78627132853	0
323	74855	43.79127132853	0
323	75401	43.79627132853	0
323	76082	43.80127132853	0
323	77136	43.810832215902	0
323	77699	43.815832215902	0
323	78515	43.820832215902	0
323	78895	43.825832215902	0
323	81047	43.858007658181	0
323	81163	43.863007658181	0
323	81879	43.868007658181	0
323	82272	43.876997000892	0
323	82844	43.881997000892	0
323	82853	43.886997000892	0
323	84068	43.901054481013	0
323	84174	43.906054481013	0
323	84899	43.914336239406	0
323	84991	43.919336239406	0
323	85676	43.925065004568	0
323	86053	43.930065004568	0
323	86532	43.937519018105	0
323	86836	43.942519018105	0
323	86837	43.947519018105	0
323	87960	43.988607003062	0
323	87961	43.993607003062	0
323	88497	44.028361220297	0
323	88498	44.033361220297	0
323	88505	44.505	1
323	88512	44.51	0
323	89682	44.518569332273	28
323	90491	44.523569332273	0
323	91680	44.528569332273	0
323	92537	44.533569332273	0
323	93418	44.538709032793	0
323	94203	44.543709032793	0
323	95090	44.548709032793	0
323	96026	44.555069049056	0
323	96624	44.560069049056	0
323	97385	44.565069049056	0
323	98315	44.570906016866	0
323	99128	44.575906016866	0
323	99704	44.580906016866	0
323	101130	44.590443352283	0
323	101769	44.595443352283	0
323	103390	44.607826986911	0
323	104117	44.612826986911	0
323	104971	44.61935857942	0
323	105629	44.62435857942	0
323	106275	44.62935857942	0
323	109649	44.657762005205	0
323	110460	44.662762005205	0
323	111374	44.667762005205	0
323	113600	44.683963010191	0
323	114267	44.688963010191	0
323	115101	44.694971363664	0
323	116183	44.699971363664	0
323	116668	44.704971363664	0
323	117339	44.709971363664	0
323	117775	44.714971363664	0
323	118784	44.720321542901	0
323	119741	44.725321542901	0
323	120594	44.731838428832	0
323	121078	44.736838428832	0
323	121630	44.741838428832	0
323	121943	44.747111882756	0
323	122465	44.752111882756	0
323	123316	44.760518538342	0
323	123879	44.765518538342	0
323	124537	44.770518538342	0
323	125166	44.775518538342	0
323	126015	44.785613681614	0
323	126218	44.790613681614	0
323	127127	44.798213335667	0
323	127490	44.803213335667	0
323	128345	44.811323309491	0
323	128723	44.816323309491	0
323	129181	44.822861712719	0
323	129900	44.827861712719	0
323	130274	44.838859322429	0
323	130275	44.843859322429	0
323	130751	44.849796389392	0
323	131045	44.854796389392	0
323	131437	44.859796389392	0
323	131724	44.864796389392	0
323	132213	44.869796389392	0
323	132595	44.874796389392	0
323	132596	44.879796389392	0
323	132853	45.505	1
323	133646	45.51	35
323	135218	45.515	0
323	136158	45.52	0
323	137201	45.526207853273	0
323	137671	45.531207853273	0
323	138632	45.536207853273	0
323	139826	45.541207853273	0
323	140752	45.546207853273	0
323	141434	45.551207853273	0
323	142095	45.556207853273	0
323	143887	45.567451970669	0
323	144441	45.572451970669	0
323	145560	45.577451970669	0
323	146737	45.582451970669	0
323	147478	45.587451970669	0
323	148522	45.592451970669	0
323	149276	45.597451970669	0
323	150105	45.602451970669	0
323	150960	45.607451970669	0
323	151550	45.612451970669	0
323	152538	45.617451970669	0
323	153225	45.622451970669	0
323	154468	45.627451970669	0
323	155577	45.633734074446	0
323	156348	45.638734074446	0
323	157086	45.643734074446	0
323	158138	45.648887068927	0
323	158984	45.653887068927	0
323	159807	45.658887068927	0
323	162629	45.680727786899	0
323	163309	45.685727786899	0
323	164036	45.690727786899	0
323	164545	45.695727786899	0
323	165253	45.700727786899	0
323	165915	45.705872817215	0
323	166684	45.710872817215	0
323	167719	45.715872817215	0
323	168208	45.720872817215	0
323	169050	45.726262447471	0
323	169642	45.731262447471	0
323	170506	45.736262447471	0
323	171610	45.741262447471	0
323	172596	45.746262447471	0
323	173600	45.752338276132	0
323	174001	45.757338276132	0
323	174578	45.762338276132	0
323	175420	45.767338276132	0
323	176088	45.772338276132	0
323	176815	45.777338276132	0
323	177784	45.785867210536	0
323	178624	45.790867210536	0
323	179487	45.795867210536	0
323	181214	45.812276018154	0
323	182019	45.817276018154	0
323	182438	45.822276018154	0
323	183328	45.827276018154	0
323	183896	45.832276018154	0
323	184178	45.837276018154	0
323	184662	45.842276018154	0
323	185618	45.856603248804	0
323	186017	45.861603248804	0
323	186018	45.866603248804	0
323	186108	45.876945237108	0
323	186421	45.881945237108	0
323	186798	45.886945237108	0
323	187186	45.896755251261	0
323	187187	45.901755251261	0
323	187962	45.924855869741	0
323	188346	45.929855869741	0
323	188741	45.947191814233	0
323	188742	45.952191814233	0
323	188906	46.505	1
323	189210	46.51	25
323	190138	46.515	0
323	191131	46.52	0
323	192275	46.525	0
323	193303	46.53	0
323	194467	46.535	0
323	195561	46.54	0
323	196307	46.545	0
323	197263	46.55	0
323	197768	46.555	0
323	198436	46.56	0
323	199273	46.565	0
323	200187	46.57	0
323	200923	46.575	0
323	201744	46.581171282645	0
323	202392	46.586171282645	0
323	203258	46.591275417349	0
323	203915	46.596275417349	0
323	204722	46.601275417349	0
323	205485	46.606275417349	0
323	206072	46.611275417349	0
323	206674	46.616275417349	0
323	207517	46.621275417349	0
323	207974	46.626275417349	0
323	208721	46.632377822094	0
323	209434	46.637377822094	0
323	210002	46.642377822094	0
323	210497	46.647377822094	0
323	211044	46.652377822094	0
323	214019	46.676239565669	0
323	214751	46.681239565669	0
323	215502	46.688932334552	0
323	215798	46.693932334552	0
323	216368	46.698932334552	0
323	216832	46.703932334552	0
323	217701	46.709106134332	0
323	218420	46.714106134332	0
323	219095	46.719783536291	0
323	219488	46.724783536291	0
323	219865	46.729783536291	0
323	222286	46.746520277883	0
323	222684	46.751520277883	0
323	223516	46.756520277883	0
323	224162	46.763171431115	0
323	224555	46.768171431115	0
323	224758	46.773171431115	0
323	225161	46.778171431115	0
323	225976	46.783171431115	0
323	226443	46.788171431115	0
323	227780	46.805089784945	0
323	228237	46.810089784945	0
323	228543	46.815089784945	0
323	228725	46.820089784945	0
323	229116	46.825089784945	0
323	229900	46.832623563813	0
323	229902	46.837623563813	0
323	230452	47.505	1
323	230719	47.51	21
323	231787	47.515	0
323	232839	47.52	0
323	233863	47.525	0
323	234246	47.53	0
323	234833	47.536876170512	0
323	235426	47.541876170512	0
323	236006	47.546876170512	0
323	237023	47.551876170512	0
323	237680	47.556876170512	0
323	238530	47.563571578927	0
323	239006	47.568571578927	0
323	239979	47.576656285354	0
323	240633	47.581656285354	0
323	241582	47.587851564694	0
323	242136	47.592851564694	0
323	243888	47.612961003344	0
323	244380	47.617961003344	0
323	245210	47.622961003344	0
323	246696	47.635028021785	0
323	247077	47.640028021785	0
323	247640	47.645028021785	0
323	248049	47.650028021785	0
323	248665	47.655028021785	0
323	249895	47.664445909434	0
323	250541	47.669445909434	0
323	251868	47.680276071275	0
323	252380	47.685276071275	0
323	252855	47.690276071275	0
323	253503	47.695276071275	0
323	253692	47.700276071275	0
323	253694	47.705276071275	0
323	255390	47.722440268018	0
323	255750	47.727440268018	0
323	256019	47.732440268018	0
323	256138	47.737440268018	0
323	256883	47.74560892634	0
323	257343	47.75060892634	0
323	258213	47.75854429055	0
323	258214	47.76354429055	0
323	259363	47.81952830618	0
323	259746	47.82452830618	0
323	259747	47.82952830618	0
323	259911	48.505	1
323	259918	48.51	0
323	260983	48.519494560864	22
323	262134	48.524494560864	0
323	262904	48.529494560864	0
323	263894	48.534494560864	0
323	264626	48.539494560864	0
323	265385	48.544494560864	0
323	266076	48.549494560864	0
323	267122	48.554897932377	0
323	267911	48.559897932377	0
323	268761	48.564897932377	0
323	269790	48.569897932377	0
323	270549	48.574897932377	0
323	271302	48.581392630337	0
323	271672	48.586392630337	0
323	272447	48.591974690725	0
323	272838	48.596974690725	0
323	273535	48.601974690725	0
323	274873	48.610627168357	0
323	275723	48.615627168357	0
323	276567	48.620627168357	0
323	277056	48.625627168357	0
323	277564	48.630627168357	0
323	278024	48.635627168357	0
323	279536	48.647730670214	0
323	280010	48.652730670214	0
323	280291	48.657730670214	0
323	282246	48.67311441411	0
323	282555	48.67811441411	0
323	283030	48.68311441411	0
323	283972	48.689185265526	0
323	284666	48.694185265526	0
323	284965	48.699185265526	0
323	285810	48.704185265526	0
323	286293	48.709185265526	0
323	287023	48.714185265526	0
323	287692	48.719185265526	0
323	287989	48.724185265526	0
323	288374	48.729185265526	0
323	288863	48.734185265526	0
323	288954	48.739185265526	0
323	289352	48.75091327861	0
323	289916	48.75591327861	0
323	290306	48.76091327861	0
323	290307	48.76591327861	0
323	290872	48.782968524582	0
323	290873	48.787968524582	0
323	291259	48.809481293582	0
323	291260	48.814481293582	0
323	291461	49.505	1
323	291555	49.51	0
323	292537	49.515333625223	21
323	293312	49.520333625223	0
323	294737	49.529232817719	0
323	295579	49.534232817719	0
323	295994	49.539232817719	0
323	296868	49.544232817719	0
323	297695	49.549232817719	0
323	298271	49.554232817719	0
323	298639	49.559232817719	0
323	299232	49.564870395172	0
323	299906	49.569870395172	0
323	300680	49.574870395172	0
323	301757	49.579870395172	0
323	302811	49.584870395172	0
323	303635	49.589870395172	0
323	304673	49.594870395172	0
323	305238	49.599870395172	0
323	306156	49.605500344989	0
323	306836	49.610500344989	0
323	307710	49.619359545723	0
323	308194	49.624359545723	0
323	309034	49.629359545723	0
323	311116	49.646718416024	0
323	311859	49.651718416024	0
323	312607	49.656718416024	0
323	313479	49.665815712539	0
323	314129	49.670815712539	0
323	315051	49.676980767746	0
323	315807	49.681980767746	0
323	316758	49.686980767746	0
323	317269	49.691980767746	0
323	318253	49.696980767746	0
323	318460	49.701980767746	0
323	319049	49.706980767746	0
323	319430	49.711980767746	0
323	319788	49.716980767746	0
323	320943	49.730996004826	0
323	321314	49.735996004826	0
323	322263	49.744069016982	0
323	322669	49.749069016982	0
323	323133	49.754069016982	0
323	323513	49.759069016982	0
323	324235	49.765543800516	0
323	324920	49.770543800516	0
323	325420	49.775543800516	0
323	325714	49.780543800516	0
323	325915	49.785543800516	0
323	326943	49.790543800516	0
323	327301	49.795543800516	0
323	328076	49.823536024252	0
323	328077	49.828536024252	0
323	328278	50.505	1
323	328722	50.51	16
323	329987	50.515	0
323	331249	50.52	0
323	332713	50.525	0
323	333836	50.53	0
323	334695	50.535	0
323	334897	50.54	0
323	335596	50.545	0
323	336656	50.55	0
323	337513	50.555	0
323	337906	50.56	0
323	338860	50.565	0
323	339330	50.57	0
323	340103	50.575	0
323	340783	50.58	0
323	341614	50.585	0
323	342092	50.59	0
323	342492	50.598507495794	0
323	343044	50.603507495794	0
323	343400	50.608507495794	0
323	344061	50.618665419834	0
323	344448	50.623665419834	0
323	345245	50.628665419834	0
323	345791	50.633665419834	0
323	346317	50.640145447913	0
323	347084	50.645145447913	0
323	347561	50.650145447913	0
323	348327	50.655145447913	0
323	349002	50.660145447913	0
323	349010	50.665145447913	0
323	350085	50.672137424019	0
323	350949	50.677137424019	0
323	350958	50.682137424019	0
323	351519	50.689381114063	0
323	351977	50.694381114063	0
323	352382	50.699381114063	0
323	353118	50.704381114063	0
323	353955	50.709381114063	0
323	354528	50.714381114063	0
323	355011	50.751540339672	0
323	355012	50.756540339672	0
323	355217	51.505	1
323	355576	51.51	20
323	356716	51.515	0
323	357410	51.52	0
323	358488	51.525	0
323	359148	51.53	0
323	359867	51.535	0
323	360384	51.54	0
323	361039	51.545	0
323	362504	51.554041376502	0
323	363706	51.559041376502	0
323	364332	51.564041376502	0
323	365552	51.571625110732	0
323	366202	51.576625110732	0
323	366805	51.581625110732	0
323	367380	51.586625110732	0
323	368440	51.591625110732	0
323	369130	51.596625110732	0
323	369704	51.601625110732	0
323	370757	51.606625110732	0
323	371922	51.611625110732	0
323	372769	51.616625110732	0
323	372967	51.621625110732	0
323	373546	51.626625110732	0
323	374332	51.631625110732	0
323	376151	51.641560834385	0
323	376637	51.646560834385	0
323	377503	51.653683703246	0
323	378270	51.658683703246	0
323	379245	51.663683703246	0
323	380274	51.668683703246	0
323	381151	51.673683703246	0
323	381715	51.678683703246	0
323	382247	51.683683703246	0
323	382824	51.688683703246	0
323	383601	51.695769239429	0
323	383999	51.700769239429	0
323	384469	51.705769239429	0
323	385059	51.710769239429	0
323	385458	51.715769239429	0
323	386141	51.720915288729	0
323	386535	51.725915288729	0
323	386536	51.730915288729	0
323	387497	51.748817668038	0
323	388096	51.753817668038	0
323	388103	51.758817668038	0
323	388495	51.765636411833	0
323	388583	51.770636411833	0
323	389274	51.776380437415	0
323	389275	51.781380437415	0
323	389464	52.505	1
323	389558	52.51	0
323	390792	52.516226261616	29
323	392434	52.521226261616	0
323	394053	52.526226261616	0
323	394837	52.531226261616	0
323	395954	52.536226261616	0
323	396656	52.541226261616	0
323	397534	52.546226261616	0
323	398432	52.551226261616	0
323	399529	52.556226261616	0
323	400413	52.561226261616	0
323	401665	52.566226261616	0
323	402941	52.571226261616	0
323	403937	52.576226261616	0
323	405105	52.581226261616	0
323	405998	52.586226261616	0
323	408351	52.597048797396	0
323	409264	52.602048797396	0
323	409960	52.607048797396	0
323	410914	52.612048797396	0
323	411716	52.617048797396	0
323	412777	52.622048797396	0
323	414663	52.632832640736	0
323	415222	52.637832640736	0
323	416201	52.643377531834	0
323	416991	52.648377531834	0
323	417873	52.653377531834	0
323	418953	52.658377531834	0
323	420086	52.663377531834	0
323	421316	52.668377531834	0
323	422007	52.673377531834	0
323	423966	52.688153607182	0
323	424652	52.693153607182	0
323	425525	52.698153607182	0
323	426706	52.706460496709	0
323	427636	52.711460496709	0
323	428033	52.716460496709	0
323	429114	52.72830974222	0
323	429972	52.73330974222	0
323	430671	52.73830974222	0
323	431450	52.74330974222	0
323	432160	52.74830974222	0
323	433064	52.75330974222	0
323	434182	52.75830974222	0
323	435071	52.76330974222	0
323	436650	52.782967100913	0
323	437230	52.787967100913	0
323	437817	52.792967100913	0
323	438392	52.797967100913	0
323	439553	52.807416537538	0
323	439950	52.812416537538	0
323	440449	52.821282253342	0
323	440933	52.826282253342	0
323	441211	52.832059938443	0
323	441325	52.837059938443	0
323	442971	52.856578426227	0
323	443272	52.861578426227	0
323	443276	52.866578426227	0
323	444051	52.874088669911	0
323	444061	52.879088669911	0
323	444661	52.898268521096	0
323	444858	52.903268521096	0
323	445043	53.505	1
323	445056	53.51	0
323	446555	53.517034121852	29
323	448172	53.522034121852	0
323	449179	53.527034121852	0
323	450234	53.532034121852	0
323	450850	53.537034121852	0
323	451738	53.542034121852	0
323	452679	53.547034121852	0
323	453722	53.552034121852	0
323	454541	53.557034121852	0
323	456007	53.562034121852	0
323	457433	53.567034121852	0
323	458332	53.572034121852	0
323	459331	53.577034121852	0
323	460448	53.582034121852	0
323	461620	53.587034121852	0
323	462433	53.592034121852	0
323	463512	53.597034121852	0
323	464500	53.602034121852	0
323	465683	53.607034121852	0
323	466199	53.612034121852	0
323	466818	53.617034121852	0
323	467786	53.622034121852	0
323	468476	53.627034121852	0
323	469368	53.632034121852	0
323	469869	53.637034121852	0
323	470767	53.642034121852	0
323	471576	53.647034121852	0
323	472426	53.652034121852	0
323	473455	53.657034121852	0
323	474419	53.663863388658	0
323	475023	53.668863388658	0
323	475206	53.673863388658	0
323	476125	53.678924281589	0
323	476925	53.683924281589	0
323	477809	53.688924281589	0
323	478701	53.69644914273	0
323	479492	53.70144914273	0
323	482635	53.726297679468	0
323	483173	53.731297679468	0
323	483455	53.736297679468	0
323	484255	53.741297679468	0
323	485153	53.751471448433	0
323	485448	53.756471448433	0
323	486354	53.764226944644	0
323	486946	53.769226944644	0
323	487657	53.774226944644	0
323	488741	53.779226944644	0
323	489729	53.784226944644	0
323	489730	53.789226944644	0
323	490817	53.80716172726	0
323	491528	53.81216172726	0
323	491941	53.81716172726	0
323	491942	53.82216172726	0
323	492339	53.837934010332	0
323	492340	53.842934010332	0
323	492526	54.505	1
323	492837	54.51	27
323	494021	54.515	0
323	494916	54.52	0
323	497186	54.535481333333	0
323	497987	54.540481333333	0
323	498987	54.545481333333	0
323	499721	54.550481333333	0
323	500546	54.555481333333	0
323	501428	54.560481333333	0
323	502522	54.565481333333	0
323	503667	54.570481333333	0
323	504511	54.575481333333	0
323	505143	54.580481333333	0
323	505746	54.585481333333	0
323	506254	54.590481333333	0
323	508685	54.607992811812	0
323	509395	54.612992811812	0
323	510109	54.617992811812	0
323	510998	54.623002687751	0
323	511615	54.628002687751	0
323	512602	54.634732259694	0
323	513307	54.639732259694	0
323	513935	54.644732259694	0
323	514861	54.649732259694	0
323	515569	54.654732259694	0
323	516532	54.659732259694	0
323	517108	54.664732259694	0
323	518038	54.669944602752	0
323	519292	54.674944602752	0
323	519990	54.679944602752	0
323	520525	54.684944602752	0
323	521484	54.689944602752	0
323	522344	54.694944602752	0
323	523052	54.699944602752	0
323	523728	54.704944602752	0
323	524019	54.709944602752	0
323	525980	54.726571528537	0
323	526397	54.731571528537	0
323	527003	54.736571528537	0
323	528001	54.741571528537	0
323	528677	54.746571528537	0
323	529275	54.751571528537	0
323	529603	54.756571528537	0
323	530174	54.761571528537	0
323	531011	54.766571528537	0
323	531510	54.771571528537	0
323	532196	54.777211613477	0
323	532608	54.782211613477	0
323	532897	54.787211613477	0
323	533595	54.792211613477	0
323	533596	54.797211613477	0
323	535029	54.845626239625	0
323	535424	54.850626239625	0
323	535844	54.859310252583	0
323	536239	54.864310252583	0
323	536240	54.869310252583	0
323	536641	54.888166240225	0
323	537058	54.893166240225	0
323	537470	54.898166240225	0
323	537855	54.903166240225	0
323	540988	70.00501	0
323	541384	70.01001	0
323	541773	70.01501	0
323	542164	70.02001	0
323	542165	70.02501	0
323	542734	71.00501	0
323	543152	71.01001	0
323	543558	71.01501	0
323	543950	71.02001	0
323	544528	71.02501	0
323	544529	71.03001	0
323	545305	71.05252408844	0
323	545396	71.05752408844	0
323	546097	71.06329211524	0
323	546493	71.06829211524	0
323	546494	71.07329211524	0
323	546952	72.00501	0
323	547474	72.01001	0
323	547860	72.01501	0
323	548351	72.02001	0
323	548842	72.02501	0
323	548843	72.03001	0
323	549509	72.052492060497	0
323	549711	72.057492060497	0
323	550404	72.063292100834	0
323	550801	72.068292100834	0
323	551188	72.073292100834	0
323	551189	72.078292100834	0
323	551774	73.00501	0
323	552273	73.01001	0
323	552679	73.01501	0
323	553066	73.02001	0
323	553638	73.02501	0
323	554536	73.03001	0
323	555557	73.03501	0
323	555558	73.04001	0
323	557058	73.08885212871	0
323	557391	73.09385212871	0
323	557392	73.09885212871	0
323	653172	670.00501	0
323	653581	670.01001	0
323	654066	670.01501	0
323	654457	670.02001	0
323	654458	670.02501	0
323	655027	671.00501	0
323	655445	671.01001	0
323	655851	671.01501	0
323	656255	671.02001	0
323	656821	671.02501	0
323	656822	671.03001	0
323	657660	671.051564088441	0
323	657767	671.056564088441	0
323	658241	671.079932115241	0
323	658846	671.084932115241	0
323	658953	671.089932115241	0
323	659411	672.00501	0
323	659930	672.01001	0
323	660319	672.01501	0
323	661113	672.02001	0
323	661603	672.02501	0
323	661910	672.03001	0
323	662391	672.03501	0
323	663084	672.04001	0
323	663471	672.04501	0
323	663472	672.05001	0
323	663844	673.00501	0
323	664469	673.01001	0
323	664878	673.01501	0
323	665348	673.02001	0
323	665921	673.02501	0
323	666716	673.03001	0
323	667050	673.03501	0
323	667051	673.04001	0
323	667978	673.061652121209	0
323	668476	673.066652121209	0
323	668477	673.071652121209	0
323	669721	673.095820128711	0
323	669722	673.100820128711	0
323	765611	1270.00501	0
323	766007	1270.01001	0
323	766393	1270.01501	0
323	766787	1270.02001	0
323	766788	1270.02501	0
323	767232	1271.00501	0
323	767772	1271.01001	0