file 206399 1353023986                                          
version 2
run AODVScenario_1f-25-20121115-23:59:26-3556
attr configname AODVScenario_1f
attr datetime 20121115-23:59:26
attr experiment AODVScenario_1f
attr inifile AODV.ini
attr iterationvars $numNodes=75
attr iterationvars2 "$numNodes=75, $repetition=0"
attr measurement $numNodes=75
attr network csma802154net
attr numNodes 75
attr processid 3556
attr repetition 0
attr replication #0
attr resultdir results
attr runnumber 25
attr seedset 25

vector 311  csma802154net.dataCentricNetworkMan  RREQPacketFrequency  ETV
vector 312  csma802154net.dataCentricNetworkMan  RERRPacketFrequency  ETV
vector 313  csma802154net.dataCentricNetworkMan  DiscoveryPacketFrequency  ETV
vector 314  csma802154net.dataCentricNetworkMan  RegisterPacketFrequency  ETV
vector 315  csma802154net.dataCentricNetworkMan  RReplyPacketFrequency  ETV
vector 316  csma802154net.dataCentricNetworkMan  AODVDataPacketFrequency  ETV
vector 323  csma802154net.dataCentricNetworkMan  pendingRegistrationVector  ETV
vector 322  csma802154net.dataCentricNetworkMan  pendingRREQVector  ETV
vector 320  csma802154net.dataCentricNetworkMan  PendingDataPacketsVector  ETV
vector 325  csma802154net.fixhost[1].udpApp  "End-to-end delay"  ETV
vector 308  csma802154net.dataCentricNetworkMan  dataPacketE2EDelay  ETV
vector 326  csma802154net.fixhost[2].udpApp  "End-to-end delay"  ETV
vector 330  csma802154net.fixhost[6].udpApp  "End-to-end delay"  ETV
vector 340  csma802154net.fixhost[16].udpApp  "End-to-end delay"  ETV
vector 336  csma802154net.fixhost[12].udpApp  "End-to-end delay"  ETV
vector 328  csma802154net.fixhost[4].udpApp  "End-to-end delay"  ETV
vector 329  csma802154net.fixhost[5].udpApp  "End-to-end delay"  ETV
vector 332  csma802154net.fixhost[8].udpApp  "End-to-end delay"  ETV
vector 337  csma802154net.fixhost[13].udpApp  "End-to-end delay"  ETV
vector 343  csma802154net.fixhost[19].udpApp  "End-to-end delay"  ETV
vector 345  csma802154net.fixhost[21].udpApp  "End-to-end delay"  ETV
308	2012 6472 548356 1773508 70.015996039815 7273.026116111027 143 0.00643602601 0.069852071904 2.881653009387 0.07148447963788
311	8484 29705 593 1773698 1.005 7273.03501 1055 0 90 1279 69701
312	38189 29676 593 1773698 1.005 7273.03501 1055 0 0 0 0
313	67865 29676 593 1773698 1.005 7273.03501 1055 0 0 0 0
314	97541 29676 593 1773698 1.005 7273.03501 1055 0 1 12 12
315	127217 29688 593 1773698 1.005 7273.03501 1055 0 79 1226 39372
316	156905 29694 593 1773698 1.005 7273.03501 1055 0 78 973 30193
320	186599 11909 547241 1773508 70 7273.026116111027 390 0 3 455 871
322	198508 867 22245 507710 43.50001 54.541870681227 32 0 1 15 15
323	199375 552 22240 540841 43.5 54.795172269844 23 0 2 26 40
325	199927 590 548356 1764620 70.015996039815 7270.012796039816 13 0.011836039816 0.015996039815 0.180748517602 0.0025326610011739
326	200517 590 549156 1765419 70.024876079954 7270.021036079956 13 0.021036079956 0.028004079955 0.312861039418 0.0075810211176474
328	201107 572 553729 1770157 72.00835602601 7272.00675602601 13 0.00643602601 0.01027602601 0.106708338126 0.00089547967889275
329	201679 590 554129 1770557 72.013116043665 7272.010236043664 13 0.010236043664 0.014396043665 0.16218856764 0.00204415645178
330	202269 590 549552 1765803 70.028644090751 7270.022636090752 13 0.019116090752 0.049764090752 0.39769317978 0.013569095751043
332	202859 590 554524 1770951 72.017236066738 7272.014036066737 13 0.014036066737 0.019476066738 0.220548867588 0.0037744136457287
336	203449 590 552762 1767618 71.042372047978 7271.016276047978 13 0.015316047978 0.047812047978 0.34608462371 0.010449646216702
337	204039 590 555882 1772309 73.013436041785 7273.012796041785 13 0.011516041784 0.015036041785 0.170508543201 0.0022492995772758
340	204629 590 551951 1769200 71.022636071905 7271.069852071904 13 0.021356071905 0.069852071904 0.39513293476 0.014259133639593
343	205219 590 556288 1772715 73.018196073402 7273.016596073402 13 0.015956073401 0.020116073402 0.22918895422 0.0040592511335822
345	205809 590 557082 1773508 73.036356111027 7273.026116111027 13 0.025156111025 0.036356111027 0.359989443342 0.010070321424462
