file 251908 1353325039                                          
version 2
run AODVScenario_1f-68-20121119-11:36:38-4000
attr configname AODVScenario_1f
attr datetime 20121119-11:36:38
attr experiment AODVScenario_1f
attr inifile AODV.ini
attr iterationvars $numNodes=118
attr iterationvars2 "$numNodes=118, $repetition=0"
attr measurement $numNodes=118
attr network csma802154net
attr numNodes 118
attr processid 4000
attr repetition 0
attr replication #0
attr resultdir results
attr runnumber 68
attr seedset 68

vector 483  csma802154net.dataCentricNetworkMan  RREQPacketFrequency  ETV
vector 484  csma802154net.dataCentricNetworkMan  RERRPacketFrequency  ETV
vector 485  csma802154net.dataCentricNetworkMan  DiscoveryPacketFrequency  ETV
vector 486  csma802154net.dataCentricNetworkMan  RegisterPacketFrequency  ETV
vector 487  csma802154net.dataCentricNetworkMan  RReplyPacketFrequency  ETV
vector 488  csma802154net.dataCentricNetworkMan  AODVDataPacketFrequency  ETV
vector 495  csma802154net.dataCentricNetworkMan  pendingRegistrationVector  ETV
vector 494  csma802154net.dataCentricNetworkMan  pendingRREQVector  ETV
vector 489  csma802154net.dataCentricNetworkMan  AODVDataLineBreakVector  ETV
vector 492  csma802154net.dataCentricNetworkMan  PendingDataPacketsVector  ETV
vector 503  csma802154net.fixhost[7].udpApp  "End-to-end delay"  ETV
vector 480  csma802154net.dataCentricNetworkMan  dataPacketE2EDelay  ETV
vector 511  csma802154net.fixhost[15].udpApp  "End-to-end delay"  ETV
vector 508  csma802154net.fixhost[12].udpApp  "End-to-end delay"  ETV
vector 501  csma802154net.fixhost[5].udpApp  "End-to-end delay"  ETV
vector 500  csma802154net.fixhost[4].udpApp  "End-to-end delay"  ETV
vector 509  csma802154net.fixhost[13].udpApp  "End-to-end delay"  ETV
vector 515  csma802154net.fixhost[19].udpApp  "End-to-end delay"  ETV
vector 514  csma802154net.fixhost[18].udpApp  "End-to-end delay"  ETV
480	1885 4758 1285984 3223203 70.008036023102 7273.038732123771 104 0.008036023102 0.085380123773 2.853743240294 0.10196154060441
483	6643 38275 1070 3223476 1.005 7273.04501 1329 0 142 2937 256891
484	44918 38225 1070 3223476 1.005 7273.04501 1329 0 1 1 1
485	83143 38225 1070 3223476 1.005 7273.04501 1329 0 0 0 0
486	121368 38225 1070 3223476 1.005 7273.04501 1329 0 1 12 12
487	159593 38242 1070 3223476 1.005 7273.04501 1329 0 124 1861 97169
488	197835 38244 1070 3223476 1.005 7273.04501 1329 0 124 1403 85325
489	236079 30 395796 395796 45.846036736891 45.846036736891 1 1 1 1 1
492	236109 9503 1284951 3223203 70 7273.038732123771 312 0 3 286 468
494	245612 1064 54489 1234957 43.50001 54.525704439564 38 0 1 15 15
495	246676 474 54484 1278797 43.5 54.793289741622 20 0 5 66 262
500	247150 595 1293655 3215947 72.022924051109 7272.017556051108 13 0.015636051109 0.025164051109 0.262284664412 0.0054202695779594
501	247745 595 1293071 3216820 72.017556067994 7272.042444067993 13 0.015636067993 0.042444067993 0.290836883918 0.0074745863180803
503	248340 595 1285984 3208860 70.008036023102 7270.008996023102 13 0.008036023102 0.011236023102 0.118868300325 0.0010962399401673
508	248935 595 1290444 3212180 71.055636052549 7271.021004052548 13 0.016276052549 0.055636052549 0.29826868313 0.0082796380830965
509	249530 595 1296987 3219548 73.021004059083 7273.017556059081 13 0.014036059083 0.053180059082 0.313588768071 0.0093797211029892
511	250125 595 1289859 3213365 71.027396081096 7271.030204081094 13 0.024764081092 0.053244081096 0.429349054237 0.015159537364237
514	250720 593 1300030 3221398 73.046844098242 7273.03020409824 13 0.025404098243 0.054132098242 0.492741277146 0.020012324479689
515	251313 595 1299435 3223203 73.034396123774 7273.038732123771 13 0.033044123774 0.085380123773 0.647805609055 0.035139223738191
