file 182112 1353023756                                          
version 2
run AODVScenario_1f-15-20121115-23:55:43-3784
attr configname AODVScenario_1f
attr datetime 20121115-23:55:43
attr experiment AODVScenario_1f
attr inifile AODV.ini
attr iterationvars $numNodes=65
attr iterationvars2 "$numNodes=65, $repetition=0"
attr measurement $numNodes=65
attr network csma802154net
attr numNodes 65
attr processid 3784
attr repetition 0
attr replication #0
attr resultdir results
attr runnumber 15
attr seedset 15

vector 271  csma802154net.dataCentricNetworkMan  RREQPacketFrequency  ETV
vector 272  csma802154net.dataCentricNetworkMan  RERRPacketFrequency  ETV
vector 273  csma802154net.dataCentricNetworkMan  DiscoveryPacketFrequency  ETV
vector 274  csma802154net.dataCentricNetworkMan  RegisterPacketFrequency  ETV
vector 275  csma802154net.dataCentricNetworkMan  RReplyPacketFrequency  ETV
vector 276  csma802154net.dataCentricNetworkMan  AODVDataPacketFrequency  ETV
vector 283  csma802154net.dataCentricNetworkMan  pendingRegistrationVector  ETV
vector 282  csma802154net.dataCentricNetworkMan  pendingRREQVector  ETV
vector 277  csma802154net.dataCentricNetworkMan  AODVDataLineBreakVector  ETV
vector 280  csma802154net.dataCentricNetworkMan  PendingDataPacketsVector  ETV
vector 296  csma802154net.fixhost[12].udpApp  "End-to-end delay"  ETV
vector 268  csma802154net.dataCentricNetworkMan  dataPacketE2EDelay  ETV
vector 294  csma802154net.fixhost[10].udpApp  "End-to-end delay"  ETV
vector 299  csma802154net.fixhost[15].udpApp  "End-to-end delay"  ETV
vector 298  csma802154net.fixhost[14].udpApp  "End-to-end delay"  ETV
vector 303  csma802154net.fixhost[19].udpApp  "End-to-end delay"  ETV
vector 304  csma802154net.fixhost[20].udpApp  "End-to-end delay"  ETV
vector 286  csma802154net.fixhost[2].udpApp  "End-to-end delay"  ETV
vector 291  csma802154net.fixhost[7].udpApp  "End-to-end delay"  ETV
vector 293  csma802154net.fixhost[9].udpApp  "End-to-end delay"  ETV
vector 289  csma802154net.fixhost[5].udpApp  "End-to-end delay"  ETV
vector 292  csma802154net.fixhost[8].udpApp  "End-to-end delay"  ETV
vector 288  csma802154net.fixhost[4].udpApp  "End-to-end delay"  ETV
268	2162 7044 322121 1395673 70.062036064716 7273.068260041088 156 0.006436024975 0.107684090994 3.810353618477 0.13121529774986
271	9206 25272 519 1395824 1.005 7273.078260041088 918 0 64 944 35282
272	34478 25243 519 1395824 1.005 7273.078260041088 918 0 0 0 0
273	59721 25243 519 1395824 1.005 7273.078260041088 918 0 0 0 0
274	84964 25243 519 1395824 1.005 7273.078260041088 918 0 1 12 12
275	110207 25255 519 1395824 1.005 7273.078260041088 918 0 55 900 19930
276	135462 25261 519 1395824 1.005 7273.078260041088 918 0 51 807 14803
277	160723 30 254391 254391 52.702971091145 52.702971091145 1 1 1 1 1
280	160753 12700 320597 1395673 70 7273.068260041088 416 0 3 520 1040
282	173453 1036 18011 296703 43.50001 54.51119352819 38 0 1 16 16
283	174489 579 18006 312040 43.5 54.672492879055 24 0 1 12 12
286	175068 587 326798 1392225 72.008676024975 7272.008676024974 13 0.006436024975 0.009316024975 0.104148324672 0.00084409501015313
288	175655 587 330433 1395673 73.069148041088 7273.068260041088 13 0.012156041087 0.069148041088 0.348700534139 0.014173788990591
289	176242 587 329742 1394830 73.062252050937 7273.036724050937 13 0.011516050937 0.062252050937 0.255764662189 0.0075246414319679
291	176829 587 327150 1392577 72.012476052839 7272.012796052838 13 0.009916052839 0.013436052839 0.159948686902 0.0019836587108931
292	177416 587 330101 1395333 73.067012072168 7273.040524072168 13 0.015956072169 0.067012072168 0.31949293819 0.010320081650492
293	178003 587 327857 1393284 72.022316082959 7272.020396082958 13 0.018796082959 0.022956082958 0.274109078461 0.0058011484072824
294	178590 587 322466 1387194 70.065452039127 7270.012476039129 13 0.012476039129 0.065452039127 0.31428450867 0.010150896994792
296	179177 587 322121 1387905 70.062036064716 7270.022284064717 13 0.016276064716 0.065980064717 0.353836841315 0.01299860331814
298	179764 587 324879 1390306 71.015956054149 7271.017876054146 13 0.015956054149 0.029572054149 0.273876703933 0.0061723894200964
299	180351 587 323175 1388604 70.107684090994 7270.029604090997 13 0.018476090997 0.107684090994 0.494613182951 0.025257760751413
303	180938 587 325226 1390653 71.040204067239 7271.041804067237 13 0.015956067239 0.053324067239 0.392948874104 0.013624093370687
304	181525 587 325924 1391351 71.048764098689 7271.050044098686 13 0.024836098689 0.062844098689 0.518629282951 0.022364139693357
