version 2
run AODVScenario_1f-21-20121119-11:10:42-2664
attr configname AODVScenario_1f
attr datetime 20121119-11:10:42
attr experiment AODVScenario_1f
attr inifile AODV.ini
attr iterationvars $numNodes=71
attr iterationvars2 "$numNodes=71, $repetition=0"
attr measurement $numNodes=71
attr network csma802154net
attr numNodes 71
attr processid 2664
attr repetition 0
attr replication #0
attr resultdir results
attr runnumber 21
attr seedset 21

vector 295  csma802154net.dataCentricNetworkMan  RREQPacketFrequency  ETV
vector 296  csma802154net.dataCentricNetworkMan  RERRPacketFrequency  ETV
vector 297  csma802154net.dataCentricNetworkMan  DiscoveryPacketFrequency  ETV
vector 298  csma802154net.dataCentricNetworkMan  RegisterPacketFrequency  ETV
vector 299  csma802154net.dataCentricNetworkMan  RReplyPacketFrequency  ETV
vector 300  csma802154net.dataCentricNetworkMan  AODVDataPacketFrequency  ETV
vector 307  csma802154net.dataCentricNetworkMan  pendingRegistrationVector  ETV
vector 306  csma802154net.dataCentricNetworkMan  pendingRREQVector  ETV
vector 304  csma802154net.dataCentricNetworkMan  PendingDataPacketsVector  ETV
vector 312  csma802154net.fixhost[4].udpApp  "End-to-end delay"  ETV
vector 292  csma802154net.dataCentricNetworkMan  dataPacketE2EDelay  ETV
vector 317  csma802154net.fixhost[9].udpApp  "End-to-end delay"  ETV
vector 320  csma802154net.fixhost[12].udpApp  "End-to-end delay"  ETV
vector 325  csma802154net.fixhost[17].udpApp  "End-to-end delay"  ETV
vector 342  csma802154net.fixhost[34].udpApp  "End-to-end delay"  ETV
vector 313  csma802154net.fixhost[5].udpApp  "End-to-end delay"  ETV
vector 309  csma802154net.fixhost[1].udpApp  "End-to-end delay"  ETV
vector 315  csma802154net.fixhost[7].udpApp  "End-to-end delay"  ETV
vector 314  csma802154net.fixhost[6].udpApp  "End-to-end delay"  ETV
vector 316  csma802154net.fixhost[8].udpApp  "End-to-end delay"  ETV
vector 319  csma802154net.fixhost[11].udpApp  "End-to-end delay"  ETV
292	471922	70.034516050339	0.034516050339
292	472275	70.059724055401	0.059724055401
292	472621	70.064804077899	0.064804077899
292	474576	71.023276063751	0.023276063751
292	475721	71.05448410788	0.05448410788
292	478490	72.029884101994	0.029884101994
292	479985	72.046596084322	0.046596084322
292	480368	72.094972146082	0.094972146082
292	482770	73.023876085424	0.023876085424
292	484844	73.041924159042	0.041924159042
292	485213	73.061732162037	0.061732162037
292	573588	670.014676055402	0.014676055402
292	573944	670.018444050339	0.018444050339
292	574292	670.024164077901	0.024164077901
292	576247	671.025836063751	0.025836063751
292	577391	671.038164107881	0.038164107881
292	580172	672.028996084323	0.028996084323
292	580552	672.032692101995	0.032692101995
292	582040	672.049852146083	0.049852146083
292	584602	673.025796085426	0.025796085426
292	586887	673.058892136173	0.058892136173
292	587283	673.06269212679	0.06269212679
292	675643	1270.01787605034	0.01787605034
292	675991	1270.023244055403	0.023244055403
292	676337	1270.028324077902	0.028324077902
292	679052	1271.027684063751	0.027684063751
292	679439	1271.034644107881	0.034644107881
292	682550	1272.029492101994	0.029492101994
292	683317	1272.035596146082	0.035596146082
292	684079	1272.048300084322	0.048300084322
292	687206	1273.028636117676	0.028636117676
292	688571	1273.044164159041	0.044164159041
292	688940	1273.067420162035	0.067420162035
292	777387	1870.017876055402	0.017876055402
292	777736	1870.021996077901	0.021996077901
292	778071	1870.02356405034	0.02356405034
292	780732	1871.02487606375	0.02487606375
292	781513	1871.03656410788	0.03656410788
292	784374	1872.031876084323	0.031876084323
292	785019	1872.035004101995	0.035004101995
292	786156	1872.047364146082	0.047364146082
292	788703	1873.025156085425	0.025156085425
292	790216	1873.059244162037	0.059244162037
292	791010	1873.067772159043	0.067772159043
292	879518	2470.01819605034	0.01819605034
292	879871	2470.042444055403	0.042444055403
292	880216	2470.047204077902	0.047204077902
292	882956	2471.028316107881	0.028316107881
292	883318	2471.031772063751	0.031772063751
292	885815	2472.026756084323	0.026756084323
292	886646	2472.056692101995	0.056692101995
292	888135	2472.072820146082	0.072820146082
292	891270	2473.029596117677	0.029596117677
292	892630	2473.043772159042	0.043772159042
292	893391	2473.064220162037	0.064220162037
292	981772	3070.02011605034	0.02011605034
292	982115	3070.022036055403	0.022036055403
292	982461	3070.027116077902	0.027116077902
292	985177	3071.030884063751	0.030884063751
292	985559	3071.033116107881	0.033116107881
292	988702	3072.031164084323	0.031164084323
292	989076	3072.033084101994	0.033084101994
292	990209	3072.043772146083	0.043772146083
292	993134	3073.028636117678	0.028636117678
292	995145	3073.062404159042	0.062404159042
292	995614	3073.087900162037	0.087900162037
292	1084067	3670.01563605034	0.01563605034
292	1084414	3670.018444055403	0.018444055403
292	1084761	3670.025124077902	0.025124077902
292	1087671	3671.030556107881	0.030556107881
292	1088035	3671.05442006375	0.05442006375
292	1090955	3672.027716101993	0.027716101993
292	1091345	3672.029884084321	0.029884084321
292	1092829	3672.06208414608	0.06208414608
292	1095958	3673.03627614993	0.03627614993
292	1097142	3673.047396191681	0.047396191681
292	1097505	3673.049924194676	0.049924194676
292	1185881	4270.016276055402	0.016276055402
292	1186230	4270.0203960779	0.0203960779
292	1186583	4270.022604050339	0.022604050339
292	1189468	4271.030556107879	0.030556107879
292	1190194	4271.04777206375	0.04777206375
292	1192784	4272.028356084322	0.028356084322
292	1193333	4272.033116101406	0.033116101406
292	1194825	4272.049636145493	0.049636145493
292	1198333	4273.036916149926	0.036916149926
292	1199113	4273.046404194672	0.046404194672
292	1199907	4273.055572191677	0.055572191677
292	1288261	4870.015956055402	0.015956055402
292	1288616	4870.019404050339	0.019404050339
292	1288964	4870.023844077901	0.023844077901
292	1291282	4871.026476063751	0.026476063751
292	1292588	4871.060812107881	0.060812107881
292	1295357	4872.029884101993	0.029884101993
292	1295831	4872.033476084322	0.033476084322
292	1297230	4872.046084146082	0.046084146082
292	1300148	4873.028636117678	0.028636117678
292	1301323	4873.039756159429	0.039756159429
292	1302056	4873.054164136174	0.054164136174
292	1390509	5470.01659605034	0.01659605034
292	1390857	5470.021644055402	0.021644055402
292	1391203	5470.028324077901	0.028324077901
292	1393158	5471.02263606375	0.02263606375
292	1394302	5471.036884107879	0.036884107879
292	1397223	5472.031556101992	0.031556101992
292	1398510	5472.059820084321	0.059820084321
292	1399640	5472.07097214608	0.07097214608
292	1402769	5473.038836149929	0.038836149929
292	1403543	5473.044876194675	0.044876194675
292	1404337	5473.05276419168	0.05276419168
292	1492697	6070.018196050338	0.018196050338
292	1493045	6070.024524055402	0.024524055402
292	1493392	6070.031204077901	0.031204077901
292	1495347	6071.021356063751	0.021356063751
292	1496490	6071.03240410788	0.03240410788
292	1499059	6072.031556084322	0.031556084322
292	1499801	6072.051964101994	0.051964101994
292	1501290	6072.069692146082	0.069692146082
292	1503688	6073.025796085426	0.025796085426
292	1505401	6073.041324126791	0.041324126791
292	1506133	6073.061452136173	0.061452136173
292	1594509	6670.017236055403	0.017236055403
292	1594865	6670.02132405034	0.02132405034
292	1595212	6670.024164077902	0.024164077902
292	1598103	6671.031836107881	0.031836107881
292	1598467	6671.053532063751	0.053532063751
292	1601761	6672.034684101994	0.034684101994
292	1602156	6672.041332084322	0.041332084322
292	1603377	6672.063364146082	0.063364146082
292	1606607	6673.025796085425	0.025796085425
292	1607952	6673.03620412679	0.03620412679
292	1608685	6673.061772136173	0.061772136173
292	1697138	7270.01755605034	0.01755605034
292	1697486	7270.020364055403	0.020364055403
292	1697832	7270.025444077902	0.025444077902
292	1699786	7271.024556063751	0.024556063751
292	1701092	7271.059924107879	0.059924107879
292	1703589	7272.02739608432	0.02739608432
292	1705146	7272.067108101992	0.067108101992
292	1705912	7272.074492146079	0.074492146079
292	1708390	7273.025156085426	0.025156085426
292	1710573	7273.068092159041	0.068092159041
292	1710942	7273.092700162037	0.092700162037
295	561	1.005	1
295	773	1.01	24
295	1045	1.015	22
295	1775	1.02	28
295	2559	1.025	67
295	3723	1.03	56
295	5153	1.035	73
295	6542	1.04	56
295	7932	1.045	35
295	9055	1.05	59
295	9763	1.055	52
295	10378	1.06	24
295	11162	1.065	66
295	11898	1.07	66
295	12636	1.075	20
295	13368	1.08	55
295	13805	1.085	28
295	14212	1.09	21
295	14519	1.095	32
295	14830	1.1	33
295	14991	1.105	0
295	15293	1.110551669173	32
295	15294	1.115551669173	0
295	15760	1.124106316965	35
295	15841	1.129106316965	0
295	16075	1.135307592519	33
295	16368	1.140307592519	30
295	16449	1.145307592519	0
295	16630	1.151335501702	23
295	16631	1.156335501702	0
295	16927	1.171594458172	30
295	16928	1.176594458172	0
295	17189	1.206143501702	23
295	17190	1.211143501702	0
295	23371	43.505	1
295	23678	43.51	14
295	24709	43.515	0
295	25470	43.52	0
295	25988	43.525	0
295	26412	43.53	0
295	27041	43.535	0
295	27715	43.54	0
295	28317	43.546300478455	0
295	29008	43.551300478455	0
295	29364	43.556300478455	0
295	29735	43.561300478455	0
295	30320	43.566300478455	0
295	30751	43.571300478455	0
295	31458	43.576300478455	0
295	32151	43.581300478455	0
295	32729	43.586300478455	0
295	33595	43.59474371547	0
295	33849	43.59974371547	0
295	34537	43.605331672187	0
295	35038	43.610331672187	0
295	37134	43.641921146653	0
295	37135	43.646921146653	0
295	38158	43.674084502897	0
295	38239	43.679084502897	0
295	38842	43.684491697903	0
295	38843	43.689491697903	0
295	39256	43.709020267704	0
295	39338	43.714020267704	0
295	39858	43.733233159751	0
295	40109	43.738233159751	0
295	40368	43.744297183754	0
295	40706	43.749297183754	0
295	41135	43.754297183754	0
295	41474	43.759297183754	0
295	41719	43.764297183754	0
295	41955	44.505	1
295	42796	44.51	15
295	43424	44.515	0
295	44008	44.52	0
295	44495	44.525	0
295	45141	44.532655942362	0
295	45571	44.537655942362	0
295	46098	44.542655942362	0
295	46590	44.547655942362	0
295	46921	44.552957749207	0
295	47495	44.557957749207	0
295	47831	44.562957749207	0
295	48189	44.568979925733	0
295	48285	44.573979925733	0
295	48959	44.579467947714	0
295	49552	44.584467947714	0
295	50215	44.589467947714	0
295	50635	44.594467947714	0
295	51322	44.599467947714	0
295	51830	44.604467947714	0
295	52880	44.617587570821	0
295	53046	44.622587570821	0
295	53901	44.631329934246	0
295	54304	44.636329934246	0
295	55366	44.654400388219	0
295	55453	44.659400388219	0
295	55787	44.665143909435	0
295	56180	44.670143909435	0
295	56181	44.675143909435	0
295	56597	44.694891578875	0
295	56848	44.699891578875	0
295	57255	44.704891578875	0
295	57507	44.709891578875	0
295	57588	44.714891578875	0
295	57838	44.721647921225	0
295	57839	44.726647921225	0
295	57989	45.505	1
295	57996	45.51	0
295	59000	45.518401603378	19
295	59860	45.523401603378	0
295	60608	45.528401603378	0
295	61103	45.535129878495	0
295	61629	45.540129878495	0
295	62238	45.545129878495	0
295	62983	45.550129878495	0
295	63910	45.555129878495	0
295	64564	45.560129878495	0
295	65195	45.565129878495	0
295	65801	45.570129878495	0
295	66396	45.575129878495	0
295	67216	45.580129878495	0
295	67647	45.585129878495	0
295	68166	45.590129878495	0
295	68748	45.595129878495	0
295	69195	45.600129878495	0
295	69919	45.605129878495	0
295	70426	45.610129878495	0
295	71009	45.615129878495	0
295	71338	45.620129878495	0
295	72192	45.627415551881	0
295	72531	45.632415551881	0
295	73046	45.63850997044	0
295	73673	45.64350997044	0
295	74012	45.649236732992	0
295	74601	45.654236732992	0
295	74938	45.659236732992	0
295	75025	45.664236732992	0
295	75361	45.6703490494	0
295	75632	45.6753490494	0
295	76296	45.6803490494	0
295	76623	45.6853490494	0
295	76960	45.69515326368	0
295	76963	45.70015326368	0
295	77625	45.708457280607	0
295	77626	45.713457280607	0
295	78040	45.72267912502	0
295	78301	45.72767912502	0
295	78302	45.73267912502	0
295	78452	46.505	1
295	78539	46.51	0
295	79646	46.516861975428	22
295	80297	46.521861975428	0
295	81460	46.527230576694	0
295	82131	46.532230576694	0
295	82799	46.537230576694	0
295	83349	46.542230576694	0
295	84306	46.548090722076	0
295	84988	46.553090722076	0
295	85725	46.558090722076	0
295	86404	46.563090722076	0
295	86922	46.568090722076	0
295	87559	46.573090722076	0
295	88596	46.578090722076	0
295	89202	46.583090722076	0
295	89803	46.588090722076	0
295	90178	46.593090722076	0
295	90966	46.598090722076	0
295	91566	46.603090722076	0
295	92248	46.609284016184	0
295	93131	46.614284016184	0
295	93635	46.619284016184	0
295	94416	46.624752137788	0
295	95114	46.629752137788	0
295	95355	46.634752137788	0
295	95865	46.639878399004	0
295	96501	46.644878399004	0
295	97101	46.649878399004	0
295	97692	46.654878399004	0
295	99416	46.671584702526	0
295	99510	46.676584702526	0
295	100263	46.681783651459	0
295	100710	46.686783651459	0
295	101327	46.691783651459	0
295	101933	46.696783651459	0
295	102709	46.704153533657	0
295	103140	46.709153533657	0
295	103576	46.714153533657	0
295	104267	46.721386229679	0
295	104635	46.726386229679	0
295	104968	46.731386229679	0
295	105235	46.736386229679	0
295	105332	46.741386229679	0
295	105691	46.746386229679	0
295	106049	46.751386229679	0
295	106133	46.756386229679	0
295	106478	46.762399689332	0
295	106732	46.767399689332	0
295	106733	46.772399689332	0
295	106892	47.505	1
295	107393	47.51	37
295	108834	47.515	0
295	109907	47.52	0
295	111330	47.525	0
295	112091	47.53	0
295	112700	47.535	0
295	113988	47.54	0
295	115057	47.545	0
295	115771	47.55	0
295	116815	47.555	0
295	117516	47.56	0
295	118642	47.565	0
295	119578	47.57	0
295	122572	47.58810419665	0
295	123845	47.59310419665	0
295	131343	47.640064218828	0
295	132214	47.645064218828	0
295	133075	47.653470141498	0
295	133806	47.658470141498	0
295	134798	47.663470141498	0
295	135621	47.668470141498	0
295	136883	47.677211656503	0
295	137596	47.682211656503	0
295	137878	47.687211656503	0
295	138980	47.695039769874	0
295	139591	47.700039769874	0
295	140489	47.705039769874	0
295	141097	47.710039769874	0
295	141538	47.715039769874	0
295	142446	47.720997464135	0
295	143079	47.725997464135	0
295	144237	47.730997464135	0
295	145100	47.735997464135	0
295	146093	47.740997464135	0
295	147188	47.75428685957	0
295	148145	47.75928685957	0
295	148996	47.76428685957	0
295	149696	47.76928685957	0
295	150285	47.77428685957	0
295	152195	47.787378137909	0
295	153102	47.792378137909	0
295	154604	47.804573510856	0
295	155060	47.809573510856	0
295	155661	47.814573510856	0
295	156956	47.821646603055	0
295	157682	47.826646603055	0
295	158556	47.831646603055	0
295	159377	47.837736247217	0
295	160077	47.842736247217	0
295	161647	47.858452420164	0
295	162423	47.863452420164	0
295	162953	47.868452420164	0
295	163284	47.873452420164	0
295	163733	47.880785007803	0
295	164419	47.885785007803	0
295	165180	47.890785007803	0
295	166082	47.904389107469	0
295	166461	47.909389107469	0
295	167209	47.914389107469	0
295	167739	47.919389107469	0
295	168489	47.924389107469	0
295	168968	47.929389107469	0
295	169158	47.934389107469	0
295	170974	47.953305040222	0
295	171055	47.958305040222	0
295	171712	47.964821087641	0
295	171901	47.969821087641	0
295	172157	47.974821087641	0
295	172448	47.981133949529	0
295	172449	47.986133949529	0
295	172599	48.505	1
295	172609	48.51	0
295	173948	48.517477475147	23
295	175068	48.522477475147	0
295	176442	48.531356970727	0
295	176979	48.536356970727	0
295	177803	48.544375153654	0
295	178700	48.549375153654	0
295	179647	48.554375153654	0
295	180222	48.559375153654	0
295	181021	48.564375153654	0
295	181536	48.569375153654	0
295	182283	48.574375153654	0
295	183096	48.579375153654	0
295	183847	48.584375153654	0
295	184808	48.589375153654	0
295	185365	48.595449684405	0
295	185887	48.600449684405	0
295	186442	48.605449684405	0
295	187446	48.613152628025	0
295	187920	48.618152628025	0
295	188604	48.623152628025	0
295	190980	48.643981309816	0
295	191521	48.648981309816	0
295	192200	48.654346237997	0
295	192835	48.659346237997	0
295	193394	48.664346237997	0
295	194113	48.669346237997	0
295	194902	48.674346237997	0
295	195634	48.679346237997	0
295	196073	48.684346237997	0
295	196358	48.689346237997	0
295	196988	48.696134004003	0
295	197340	48.701134004003	0
295	197787	48.708850072043	0
295	197872	48.713850072043	0
295	198399	48.720057536222	0
295	199109	48.725057536222	0
295	200083	48.730057536222	0
295	200454	48.735057536222	0
295	200716	48.740057536222	0
295	201262	48.745057536222	0
295	202216	48.750057536222	0
295	202584	48.755057536222	0
295	202944	48.760057536222	0
295	203108	48.765057536222	0
295	204152	48.775255193303	0
295	204158	48.780255193303	0
295	204846	48.787504397559	0
295	204851	48.792504397559	0
295	205728	48.800478888518	0
295	205809	48.805478888518	0
295	206104	48.811902881051	0
295	206105	48.816902881051	0
295	206837	48.829060723367	0
295	206838	48.834060723367	0
295	207011	49.505	1
295	207535	49.51	28
295	208891	49.515	0
295	210112	49.52	0
295	211382	49.525	0
295	211964	49.53	0
295	212332	49.535	0
295	213314	49.54	0
295	214160	49.545	0
295	215316	49.551443146427	0
295	215833	49.556443146427	0
295	216215	49.561443146427	0
295	217217	49.568475172495	0
295	217857	49.573475172495	0
295	218912	49.578475172495	0
295	220059	49.583475172495	0
295	220873	49.588475172495	0
295	221703	49.593475172495	0
295	222340	49.598475172495	0
295	223173	49.603475172495	0
295	223961	49.608475172495	0
295	224620	49.613475172495	0
295	226065	49.621968065867	0
295	226643	49.626968065867	0
295	227209	49.631968065867	0
295	227732	49.636968065867	0
295	228388	49.642805552277	0
295	228745	49.647805552277	0
295	230823	49.66110263046	0
295	231351	49.66610263046	0
295	232003	49.67110263046	0
295	232759	49.67610263046	0
295	233731	49.687017733081	0
295	234383	49.692017733081	0
295	235245	49.697017733081	0
295	235834	49.702017733081	0
295	236589	49.707079381146	0
295	237217	49.712079381146	0
295	237304	49.717079381146	0
295	238056	49.72337301686	0
295	238789	49.72837301686	0
295	239318	49.73337301686	0
295	239865	49.741797028274	0
295	240318	49.746797028274	0
295	240524	49.751797028274	0
295	241608	49.759731426955	0
295	242311	49.764731426955	0
295	242607	49.769731426955	0
295	243064	49.774731426955	0
295	244595	49.790907098426	0
295	245073	49.795907098426	0
295	245792	49.800907098426	0
295	246800	49.810389909999	0
295	247333	49.815389909999	0
295	247787	49.820664736581	0
295	248675	49.825664736581	0
295	249207	49.830664736581	0
295	251042	49.845915152063	0
295	251471	49.850915152063	0
295	251583	49.855915152063	0
295	251584	49.860915152063	0
295	252696	49.892653048762	0
295	252697	49.897653048762	0
295	253431	49.943740278919	0
295	253432	49.948740278919	0
295	253603	50.505	1
295	253972	50.51	34
295	255241	50.515	0
295	256359	50.52	0
295	256944	50.526047212429	0
295	257805	50.531047212429	0
295	258623	50.536047212429	0
295	259364	50.541047212429	0
295	260987	50.54859771941	0
295	261597	50.55359771941	0
295	262349	50.55859771941	0
295	263276	50.56359771941	0
295	264259	50.56859771941	0
295	265182	50.57359771941	0
295	265904	50.57859771941	0
295	266765	50.58359771941	0
295	267627	50.58859771941	0
295	268363	50.59359771941	0
295	268821	50.59859771941	0
295	270542	50.613810947883	0
295	271216	50.618810947883	0
295	271605	50.623810947883	0
295	272291	50.628810947883	0
295	273777	50.63797846446	0
295	274639	50.64297846446	0
295	275455	50.655343048586	0
295	276346	50.660343048586	0
295	276826	50.665343048586	0
295	277615	50.670343048586	0
295	278175	50.675343048586	0
295	279281	50.681054767028	0
295	279758	50.686054767028	0
295	280312	50.691054767028	0
295	281336	50.696852794785	0
295	281814	50.701852794785	0
295	282588	50.706852794785	0
295	283230	50.711852794785	0
295	283787	50.716852794785	0
295	285358	50.728645079751	0
295	286054	50.733645079751	0
295	286620	50.738645079751	0
295	286980	50.743645079751	0
295	288127	50.752026661325	0
295	289029	50.757026661325	0
295	289997	50.762026661325	0
295	290720	50.767026661325	0
295	291176	50.772026661325	0
295	291840	50.777026661325	0
295	292294	50.782026661325	0
295	292880	50.787026661325	0
295	293437	50.792026661325	0
295	293830	50.797026661325	0
295	294138	50.802026661325	0
295	294669	50.807026661325	0
295	295444	50.81536680518	0
295	296071	50.82036680518	0
295	296370	50.82536680518	0
295	296733	50.843457093695	0
295	297110	50.848457093695	0
295	297194	50.853457093695	0
295	297570	50.858604656027	0
295	297874	50.863604656027	0
295	297955	50.868604656027	0
295	298257	50.873985935772	0
295	298258	50.878985935772	0
295	298631	50.912640468998	0
295	298632	50.917640468998	0
295	298985	50.932344501443	0
295	298986	50.937344501443	0
295	299241	51.505	1
295	299661	51.51	13
295	300428	51.515	0
295	300898	51.52	0
295	301679	51.525	0
295	302594	51.53	0
295	303408	51.535	0
295	304406	51.54	0
295	304941	51.545	0
295	305589	51.55	0
295	306204	51.555	0
295	306676	51.56	0
295	307114	51.565	0
295	307497	51.57	0
295	307790	51.575	0
295	308526	51.58	0
295	308988	51.585	0
295	309646	51.59	0
295	310344	51.595	0
295	310617	51.6	0
295	310971	51.605	0
295	311059	51.61	0
295	311889	51.6238014714	0
295	312328	51.6288014714	0
295	312599	51.6338014714	0
295	312687	51.6388014714	0
295	313221	51.65595089795	0
295	313222	51.66095089795	0
295	313677	51.681475568919	0
295	313957	51.686475568919	0
295	313958	51.691475568919	0
295	314130	52.505	1
295	314217	52.51	0
295	315524	52.515716354938	34
295	316744	52.520716354938	0
295	317758	52.525716354938	0
295	318872	52.530716354938	0
295	320196	52.535716354938	0
295	321208	52.540716354938	0
295	322136	52.545716354938	0
295	323257	52.550716354938	0
295	323850	52.555716354938	0
295	325080	52.560716354938	0
295	326127	52.565716354938	0
295	326765	52.570716354938	0
295	327735	52.575716354938	0
295	328326	52.580716354938	0
295	329065	52.585716354938	0
295	331304	52.59951843417	0
295	332317	52.60451843417	0
295	332945	52.60951843417	0
295	334087	52.615600245632	0
295	334963	52.620600245632	0
295	336097	52.630885310659	0
295	336479	52.635885310659	0
295	337211	52.640885310659	0
295	338406	52.6483065361	0
295	339063	52.6533065361	0
295	339745	52.6583065361	0
295	340597	52.6633065361	0
295	341319	52.6683065361	0
295	343089	52.68167787724	0
295	343756	52.68667787724	0
295	345761	52.70073656945	0
295	346629	52.70573656945	0
295	347277	52.71073656945	0
295	347879	52.71573656945	0
295	348792	52.721048179824	0
295	349465	52.726048179824	0
295	350007	52.731048179824	0
295	350563	52.736048179824	0
295	351565	52.741048179824	0
295	352472	52.746048179824	0
295	353022	52.751048179824	0
295	353786	52.756048179824	0
295	354172	52.761048179824	0
295	354896	52.766048179824	0
295	355638	52.771048179824	0
295	355811	52.776048179824	0
295	356661	52.781176848871	0
295	356821	52.786176848871	0
295	357491	52.791374318723	0
295	358055	52.796374318723	0
295	358708	52.801374318723	0
295	359551	52.80972021711	0
295	360279	52.81472021711	0
295	361046	52.81972021711	0
295	361626	52.82472021711	0
295	362745	52.847247228913	0
295	363179	52.852247228913	0
295	363939	52.875240028722	0
295	364323	52.880240028722	0
295	364699	52.885240028722	0
295	364706	52.890240028722	0
295	365076	52.898320571151	0
295	365077	52.903320571151	0
295	365457	52.911624596801	0
295	365458	52.916624596801	0
295	365651	53.505	1
295	365949	53.51	18
295	366752	53.515	0
295	367582	53.52	0
295	368264	53.525	0
295	369041	53.53	0
295	369633	53.535	0
295	370680	53.54	0
295	371445	53.545	0
295	372192	53.55	0
295	373220	53.555	0
295	373921	53.56	0
295	374721	53.565	0
295	375768	53.57	0
295	376559	53.575	0
295	377486	53.58	0
295	377788	53.585	0
295	377875	53.59	0
295	378966	53.602820851658	0
295	379315	53.607820851658	0
295	380843	53.620943766903	0
295	381421	53.625943766903	0
295	381934	53.630943766903	0
295	382840	53.638546869879	0
295	383408	53.643546869879	0
295	383775	53.648546869879	0
295	384674	53.653546869879	0
295	385054	53.658546869879	0
295	385140	53.663546869879	0
295	386059	53.668594897884	0
295	386160	53.673594897884	0
295	386987	53.685955427262	0
295	387567	53.690955427262	0
295	388040	53.695955427262	0
295	388130	53.700955427262	0
295	388780	53.705955427262	0
295	389045	53.710955427262	0
295	389136	53.715955427262	0
295	389497	53.72999111157	0
295	389498	53.73499111157	0
295	389866	53.7457397041	0
295	389867	53.7507397041	0
295	390242	53.759203791805	0
295	390243	53.764203791805	0
295	390422	54.505	1
295	390930	54.51	40
295	393062	54.515	0
295	394255	54.52	0
295	395372	54.525	0
295	396505	54.53	0
295	397251	54.535	0
295	398291	54.54	0
295	400080	54.547166613981	0
295	401029	54.552166613981	0
295	401901	54.557166613981	0
295	403426	54.566519792226	0
295	404170	54.571519792226	0
295	405924	54.583418036198	0
295	406743	54.588418036198	0
295	410446	54.609911215532	0
295	411109	54.614911215532	0
295	413570	54.630166148844	0
295	414400	54.635166148844	0
295	416099	54.646181445771	0
295	417098	54.651181445771	0
295	417883	54.656181445771	0
295	420379	54.671348276451	0
295	421230	54.676348276451	0
295	423250	54.689467433169	0
295	424179	54.694467433169	0
295	425367	54.699467433169	0
295	425935	54.704467433169	0
295	426760	54.709467433169	0
295	427525	54.714467433169	0
295	428277	54.719467433169	0
295	429185	54.724467433169	0
295	430656	54.733596094863	0
295	431825	54.738596094863	0
295	433007	54.743596094863	0
295	434448	54.755303458368	0
295	434677	54.760303458368	0
295	435515	54.765303458368	0
295	436301	54.770303458368	0
295	437379	54.775303458368	0
295	438533	54.78125048501	0
295	438942	54.78625048501	0
295	439890	54.79382202199	0
295	440635	54.79882202199	0
295	441561	54.80382202199	0
295	445669	54.832912211127	0
295	446297	54.837912211127	0
295	447962	54.847269432797	0
295	448373	54.852269432797	0
295	449322	54.857269432797	0
295	450159	54.862269432797	0
295	450891	54.867269432797	0
295	451785	54.872269432797	0
295	452377	54.877269432797	0
295	453715	54.885534129762	0
295	454271	54.890534129762	0
295	454925	54.895534129762	0
295	455908	54.900534129762	0
295	456601	54.908056433449	0
295	457192	54.913056433449	0
295	457875	54.918056433449	0
295	458645	54.923056433449	0
295	459329	54.928056433449	0
295	460135	54.933056433449	0
295	460228	54.938056433449	0
295	461012	54.944831668264	0
295	461499	54.949831668264	0
295	462183	54.954831668264	0
295	462862	54.959831668264	0
295	463462	54.964831668264	0
295	463967	54.969831668264	0
295	464424	54.974831668264	0
295	466650	55.016933724437	0
295	467041	55.021933724437	0
295	467733	55.026933724437	0
295	467734	55.031933724437	0
295	470864	70.00501	0
295	471236	70.01001	0
295	471237	70.01501	0
295	471749	70.034116036067	0
295	472098	70.039116036067	0
295	472099	70.044116036067	0
295	472526	70.064724055401	0
295	472797	70.069724055401	0
295	472798	70.074724055401	0
295	473127	71.00501	0
295	473673	71.01001	0
295	474039	71.01501	0
295	474391	71.02001	0
295	474760	71.02501	0
295	475201	71.03001	0
295	475515	71.03501	0
295	475516	71.04001	0
295	475902	71.05948410788	0
295	475903	71.06448410788	0
295	476441	72.00501	0
295	476885	72.01001	0
295	477257	72.01501	0
295	477817	72.02001	0
295	477942	72.02501	0
295	478685	72.03140408621	0
295	479114	72.03640408621	0
295	479481	72.04140408621	0
295	479863	72.04640408621	0
295	480171	72.05140408621	0
295	480172	72.05640408621	0
295	480537	72.099972146082	0
295	480538	72.104972146082	0
295	480974	73.00501	0
295	481442	73.01001	0
295	481818	73.01501	0
295	482263	73.02001	0
295	483034	73.02501	0
295	483685	73.03001	0
295	484076	73.03501	0
295	484647	73.04001	0
295	485018	73.04501	0
295	485019	73.05001	0
295	485409	73.066732162037	0
295	485410	73.071732162037	0
295	572689	670.00501	0
295	573138	670.01001	0
295	573667	670.01501	0
295	574117	670.02001	0
295	574468	670.02501	0
295	574469	670.03001	0
295	574979	671.00501	0
295	575344	671.01001	0
295	575707	671.01501	0
295	575791	671.02001	0
295	576326	671.026076054283	0
295	576792	671.031076054283	0
295	577189	671.036076054283	0
295	577572	671.041076054283	0
295	577573	671.046076054283	0
295	578108	672.00501	0
295	578478	672.01001	0
295	578847	672.01501	0
295	579102	672.02001	0
295	579686	672.02501	0
295	580358	672.03001	0
295	580824	672.03501	0
295	581176	672.04001	0
295	581732	672.04501	0
295	582041	672.05001	0
295	582210	672.05501	0
295	582568	673.00501	0
295	583114	673.01001	0
295	583487	673.01501	0
295	583854	673.02001	0
295	584485	673.02501	0
295	584794	673.03001	0
295	584795	673.03501	0
295	585938	673.053164088642	0
295	586774	673.058164088642	0
295	587362	673.063164088642	0
295	587458	673.068164088642	0
295	674737	1270.00501	0
295	675106	1270.01001	0
295	675458	1270.01501	0
295	675816	1270.02001	0
295	676162	1270.02501	0
295	676513	1270.03001	0
295	676514	1270.03501	0
295	677024	1271.00501	0
295	677392	1271.01001	0
295	677758	1271.01501	0
295	678116	1271.02001	0
295	678669	1271.02501	0
295	679234	1271.03001	0
295	679518	1271.03501	0
295	679621	1271.04001	0
295	680159	1272.00501	0
295	680603	1272.01001	0
295	680975	1272.01501	0
295	681623	1272.02001	0
295	681993	1272.02501	0
295	682629	1272.03001	0
295	683201	1272.03501	0
295	683486	1272.04001	0
295	683877	1272.04501	0
295	684265	1272.05001	0
295	684266	1272.05501	0
295	684702	1273.00501	0
295	685173	1273.01001	0
295	685623	1273.01501	0
295	685987	1273.02001	0
295	686550	1273.02501	0
295	687398	1273.03001	0
295	687872	1273.03501	0
295	688191	1273.04001	0
295	688745	1273.04501	0
295	688746	1273.05001	0
295	689136	1273.072420162035	0
295	689137	1273.077420162035	0
295	776387	1870.00501	0
295	776856	1870.01001	0
295	777208	1870.01501	0
295	777561	1870.02001	0
295	778244	1870.02501	0
295	778245	1870.03001	0
295	778920	1871.00501	0
295	779463	1871.01001	0
295	779835	1871.01501	0
295	780187	1871.02001	0
295	780733	1871.02501	0
295	780994	1871.03001	0
295	781388	1871.035524098195	0
295	781694	1871.040524098195	0
295	781695	1871.045524098195	0
295	782230	1872.00501	0
295	782597	1872.01001	0
295	782969	1872.01501	0
295	783333	1872.02001	0
295	783697	1872.02501	0
295	784092	1872.03001	0
295	785020	1872.03501	0
295	785581	1872.04001	0