version 2
run AODVScenario_1f-55-20121121-11:59:23-1420
attr configname AODVScenario_1f
attr datetime 20121121-11:59:23
attr experiment AODVScenario_1f
attr inifile AODV.ini
attr iterationvars $numNodes=105
attr iterationvars2 "$numNodes=105, $repetition=0"
attr measurement $numNodes=105
attr network csma802154net
attr numNodes 105
attr processid 1420
attr repetition 0
attr replication #0
attr resultdir results
attr runnumber 55
attr seedset 55

vector 431  csma802154net.dataCentricNetworkMan  RREQPacketFrequency  ETV
vector 432  csma802154net.dataCentricNetworkMan  RERRPacketFrequency  ETV
vector 433  csma802154net.dataCentricNetworkMan  DiscoveryPacketFrequency  ETV
vector 434  csma802154net.dataCentricNetworkMan  RegisterPacketFrequency  ETV
vector 435  csma802154net.dataCentricNetworkMan  RReplyPacketFrequency  ETV
vector 436  csma802154net.dataCentricNetworkMan  AODVDataPacketFrequency  ETV
vector 443  csma802154net.dataCentricNetworkMan  pendingRegistrationVector  ETV
vector 442  csma802154net.dataCentricNetworkMan  pendingRREQVector  ETV
vector 437  csma802154net.dataCentricNetworkMan  AODVDataLineBreakVector  ETV
vector 440  csma802154net.dataCentricNetworkMan  PendingDataPacketsVector  ETV
vector 450  csma802154net.fixhost[6].udpApp  "End-to-end delay"  ETV
vector 428  csma802154net.dataCentricNetworkMan  dataPacketE2EDelay  ETV
vector 456  csma802154net.fixhost[12].udpApp  "End-to-end delay"  ETV
vector 454  csma802154net.fixhost[10].udpApp  "End-to-end delay"  ETV
vector 461  csma802154net.fixhost[17].udpApp  "End-to-end delay"  ETV
vector 449  csma802154net.fixhost[5].udpApp  "End-to-end delay"  ETV
vector 452  csma802154net.fixhost[8].udpApp  "End-to-end delay"  ETV
vector 448  csma802154net.fixhost[4].udpApp  "End-to-end delay"  ETV
vector 458  csma802154net.fixhost[14].udpApp  "End-to-end delay"  ETV
vector 462  csma802154net.fixhost[18].udpApp  "End-to-end delay"  ETV
428	1020244	70.01151602412	0.01151602412
428	1021236	70.018796073816	0.018796073816
428	1021760	70.022316057604	0.022316057604
428	1024094	71.016596056384	0.016596056384
428	1027929	72.027364057046	0.027364057046
428	1028457	72.030556104485	0.030556104485
428	1033936	73.039436134398	0.039436134398
428	1035811	73.070364159999	0.070364159999
428	1037876	73.10414017424	0.10414017424
428	1167981	670.012476024121	0.012476024121
428	1169001	670.022316057605	0.022316057605
428	1169517	670.024804073817	0.024804073817
428	1171835	671.017876056384	0.017876056384
428	1174859	672.021996057046	0.021996057046
428	1176420	672.055124104485	0.055124104485
428	1181163	673.034996106652	0.034996106652
428	1183521	673.06937212767	0.06937212767
428	1185116	673.094580149743	0.094580149743
428	1315221	1270.014076024119	0.014076024119
428	1316221	1270.021676073815	0.021676073815
428	1316741	1270.024164057603	0.024164057603
428	1319075	1271.016596056384	0.016596056384
428	1322917	1272.026652057046	0.026652057046
428	1323441	1272.029276104485	0.029276104485
428	1328975	1273.044836162144	0.044836162144
428	1330844	1273.055676187746	0.055676187746
428	1331930	1273.082412201985	0.082412201985
428	1462140	1870.014716024121	0.014716024121
428	1463137	1870.024236073817	0.024236073817
428	1463662	1870.030884057605	0.030884057605
428	1465996	1871.018836056384	0.018836056384
428	1469301	1872.024876057046	0.024876057046
428	1470355	1872.031836104485	0.031836104485
428	1475875	1873.033716106651	0.033716106651
428	1478045	1873.046364155414	0.046364155414
428	1478580	1873.048356169655	0.048356169655
428	1608685	2470.013116024121	0.013116024121
428	1609685	2470.022956073817	0.022956073817
428	1610210	2470.029532057605	0.029532057605
428	1612544	2471.018196056384	0.018196056384
428	1616379	2472.026476057046	0.026476057046
428	1616907	2472.031764104485	0.031764104485
428	1621929	2473.035956106652	0.035956106652
428	1623761	2473.04768412767	0.04768412767
428	1625356	2473.070012149743	0.070012149743
428	1755461	3070.011836024121	0.011836024121
428	1756458	3070.020716073817	0.020716073817
428	1756982	3070.026084057605	0.026084057605
428	1759316	3071.017556056384	0.017556056384
428	1762123	3072.022956057045	0.022956057045
428	1763680	3072.038164104483	0.038164104483
428	1771317	3073.076012187746	0.076012187746
428	1771851	3073.088388162142	0.088388162142
428	1773470	3073.100972201986	0.100972201986
428	1903680	3670.013436024121	0.013436024121
428	1904676	3670.022316073817	0.022316073817
428	1905925	3670.052572057605	0.052572057605
428	1908259	3671.016596056384	0.016596056384
428	1911283	3672.021036057046	0.021036057046
428	1912844	3672.054164104485	0.054164104485
428	1918748	3673.043916134396	0.043916134396
428	1920478	3673.065284149742	0.065284149742
428	1921564	3673.076372159999	0.076372159999
428	2051666	4270.013436024121	0.013436024121
428	2052683	4270.021356057604	0.021356057604
428	2053203	4270.025444073816	0.025444073816
428	2055521	4271.016916056382	0.016916056382
428	2059323	4272.052252057042	0.052252057042
428	2060373	4272.058252104483	0.058252104483
428	2065378	4273.031796106649	0.031796106649
428	2068012	4273.050844155413	0.050844155413
428	2068551	4273.054364169654	0.054364169654
428	2198656	4870.012796024121	0.012796024121
428	2199653	4870.021676073817	0.021676073817
428	2200177	4870.025124057605	0.025124057605
428	2202511	4871.016596056383	0.016596056383
428	2205824	4872.028004057046	0.028004057046
428	2206874	4872.035356104485	0.035356104485
428	2212442	4873.035596134396	0.035596134396
428	2213732	4873.041316159998	0.041316159998
428	2215870	4873.07442014974	0.07442014974
428	2346080	5470.011836024121	0.011836024121
428	2347077	5470.020396073817	0.020396073817
428	2347600	5470.023844057605	0.023844057605
428	2349934	5471.017236056384	0.017236056384
428	2353242	5472.023596057046	0.023596057046
428	2354297	5472.033684104485	0.033684104485
428	2360081	5473.036556134397	0.036556134397
428	2361150	5473.043236159999	0.043236159999
428	2362745	5473.068732149742	0.068732149742
428	2492850	6070.011196024121	0.011196024121
428	2493865	6070.019756057605	0.019756057605
428	2494380	6070.021676073816	0.021676073816
428	2496698	6071.017236056383	0.017236056383
428	2499505	6072.025516057045	0.025516057045
428	2501062	6072.040724104485	0.040724104485
428	2505806	6073.039156106651	0.039156106651
428	2508155	6073.072572127669	0.072572127669
428	2509750	6073.098100149743	0.098100149743
428	2639855	6670.012796024121	0.012796024121
428	2640851	6670.019756073817	0.019756073817
428	2641376	6670.026404057605	0.026404057605
428	2643710	6671.016596056383	0.016596056383
428	2646517	6672.020076057046	0.020076057046
428	2648074	6672.035604104484	0.035604104484
428	2653592	6673.038516106651	0.038516106651
428	2655384	6673.045764127668	0.045764127668
428	2656471	6673.074812149742	0.074812149742
428	2786682	7270.01503602412	0.01503602412
428	2787698	7270.024876057604	0.024876057604
428	2788219	7270.030244073816	0.030244073816
428	2790537	7271.017236056384	0.017236056384
428	2793853	7272.024484057046	0.024484057046
428	2794904	7272.030804104485	0.030804104485
428	2801245	7273.045436187746	0.045436187746
428	2802334	7273.069260162141	0.069260162141
428	2803406	7273.075692201986	0.075692201986
431	1114	1.005	27
431	1578	1.01	55
431	2780	1.015	98
431	4534	1.02	34
431	6953	1.025	118
431	9648	1.03	83
431	11844	1.035	95
431	13998	1.04	102
431	15867	1.045	83
431	17870	1.05	105
431	19330	1.055	113
431	20352	1.06	44
431	21248	1.065	70
431	22327	1.07	87
431	23480	1.075	98
431	24394	1.08	70
431	25111	1.085	55
431	26413	1.09	110
431	27086	1.095	49
431	27757	1.1	50
431	28410	1.105	64
431	29377	1.11	81
431	30692	1.115	81
431	31405	1.12	37
431	32205	1.125	74
431	32774	1.13	50
431	32775	1.135	0
431	33952	1.154245599575	105
431	34483	1.159245599575	36
431	35276	1.164245599575	69
431	35821	1.169245599575	45
431	36605	1.174245599575	72
431	36606	1.179245599575	0
431	37040	1.228675143932	44
431	37041	1.233675143932	0
431	46291	43.505	1
431	46919	43.51	20
431	48224	43.515	0
431	49285	43.52	0
431	50402	43.52543423855	0
431	51429	43.53043423855	0
431	52156	43.53543423855	0
431	53234	43.54043423855	0
431	54192	43.54543423855	0
431	54795	43.55043423855	0
431	55622	43.55543423855	0
431	56475	43.56043423855	0
431	57317	43.56543423855	0
431	58051	43.57043423855	0
431	59270	43.578215616796	0
431	59867	43.583215616796	0
431	60975	43.590718876504	0
431	61590	43.595718876504	0
431	62562	43.600718876504	0
431	63414	43.605718876504	0
431	64329	43.610718876504	0
431	64821	43.615718876504	0
431	65421	43.620718876504	0
431	66197	43.625718876504	0
431	67134	43.630718876504	0
431	69080	43.641407666747	0
431	69816	43.646407666747	0
431	70306	43.651407666747	0
431	70538	43.656407666747	0
431	71126	43.661511639287	0
431	71127	43.666511639287	0
431	71747	43.675366439137	0
431	72238	43.680366439137	0
431	72734	43.685366439137	0
431	73573	43.690741028435	0
431	74057	43.695741028435	0
431	74058	43.700741028435	0
431	74538	43.718113492923	0
431	74539	43.723113492923	0
431	75123	43.745791489346	0
431	75473	43.750791489346	0
431	75477	43.755791489346	0
431	75969	43.763377229025	0
431	76448	43.768377229025	0
431	76449	43.773377229025	0
431	76667	44.505	1
431	76788	44.51	0
431	79011	44.515282939307	48
431	81013	44.520282939307	0
431	82569	44.525282939307	0
431	84068	44.530282939307	0
431	84923	44.535282939307	0
431	86577	44.541029201747	0
431	88170	44.546029201747	0
431	89830	44.551029201747	0
431	91038	44.556029201747	0
431	93274	44.563991064005	0
431	94493	44.568991064005	0
431	97744	44.581624134933	0
431	99067	44.586624134933	0
431	102569	44.60158736347	0
431	104159	44.60658736347	0
431	105467	44.61158736347	0
431	106506	44.61757934863	0
431	107921	44.62257934863	0
431	110381	44.631410483783	0
431	111454	44.636410483783	0
431	113117	44.643963046357	0
431	114099	44.648963046357	0
431	115131	44.653963046357	0
431	116501	44.658963046357	0
431	121597	44.680535542297	0
431	123091	44.685535542297	0
431	126073	44.696748714685	0
431	127371	44.701748714685	0
431	128246	44.706748714685	0
431	129805	44.711748714685	0
431	131575	44.719040801662	0
431	132923	44.724040801662	0
431	134122	44.729040801662	0
431	135336	44.734040801662	0
431	136704	44.739700251072	0
431	137468	44.744700251072	0
431	138374	44.749700251072	0
431	140251	44.756678225471	0
431	141635	44.761678225471	0
431	142964	44.766678225471	0
431	144090	44.771678225471	0
431	144817	44.776678225471	0
431	146180	44.782718585145	0
431	146837	44.787718585145	0
431	148294	44.792718585145	0
431	151406	44.805988150076	0
431	152533	44.810988150076	0
431	153543	44.815988150076	0
431	154735	44.820988150076	0
431	156620	44.828389025871	0
431	158347	44.833389025871	0
431	159217	44.838389025871	0
431	160561	44.843389025871	0
431	161342	44.848389025871	0
431	162138	44.853389025871	0
431	163628	44.860395350694	0
431	164426	44.865395350694	0
431	165796	44.870395350694	0
431	167161	44.876314901379	0
431	168278	44.881314901379	0
431	169851	44.89067260172	0
431	171196	44.89567260172	0
431	172178	44.90067260172	0
431	174056	44.910827207015	0
431	174692	44.915827207015	0
431	176918	44.924113001261	0
431	177549	44.929113001261	0
431	181751	44.947982703052	0
431	182497	44.952982703052	0
431	183511	44.959404527678	0
431	184237	44.964404527678	0
431	185159	44.969404527678	0
431	186130	44.974404527678	0
431	187097	44.979404527678	0
431	188184	44.984404527678	0
431	189437	44.99114650948	0
431	189970	44.99614650948	0
431	191329	45.00114650948	0
431	192199	45.00614650948	0
431	193116	45.012630124586	0
431	193120	45.017630124586	0
431	193644	45.024893146536	0
431	194401	45.029893146536	0
431	194673	45.034893146536	0
431	196446	45.052749439913	0
431	196713	45.057749439913	0
431	197738	45.064787948367	0
431	197853	45.069787948367	0
431	198790	45.076294482599	0
431	199293	45.081294482599	0
431	199808	45.128133460464	0
431	199809	45.133133460464	0
431	199936	45.505	1
431	201093	45.51	34
431	202968	45.515	0
431	203919	45.52	0
431	205556	45.527498210378	0
431	205978	45.532498210378	0
431	206735	45.537498210378	0
431	207659	45.542498210378	0
431	208849	45.547498210378	0
431	209839	45.552498210378	0
431	212593	45.568776803575	0
431	213953	45.573776803575	0
431	215059	45.578776803575	0
431	216636	45.584956769101	0
431	217487	45.589956769101	0
431	218099	45.594956769101	0
431	219711	45.604700284355	0
431	220680	45.609700284355	0
431	223879	45.628005329581	0
431	224891	45.633005329581	0
431	226370	45.639512821	0
431	227372	45.644512821	0
431	228964	45.650722203214	0
431	229963	45.655722203214	0
431	231220	45.660722203214	0
431	231820	45.665722203214	0
431	233922	45.676324450376	0
431	235095	45.681324450376	0
431	236537	45.688674219032	0
431	237289	45.693674219032	0
431	239548	45.702339318351	0
431	240529	45.707339318351	0
431	241960	45.712535480198	0
431	242484	45.717535480198	0
431	243369	45.722535480198	0
431	244388	45.727535480198	0
431	245239	45.732535480198	0
431	246918	45.737535480198	0
431	247565	45.742535480198	0
431	248924	45.747535480198	0
431	249701	45.752535480198	0
431	250353	45.757535480198	0
431	251357	45.762535480198	0
431	252113	45.767535480198	0
431	253242	45.772535480198	0
431	253978	45.777535480198	0
431	254588	45.782535480198	0
431	254996	45.787535480198	0
431	255840	45.792535480198	0
431	257081	45.801709144555	0
431	257942	45.806709144555	0
431	258927	45.811709144555	0
431	260474	45.821948436662	0
431	261171	45.826948436662	0
431	261929	45.837602882932	0
431	262417	45.842602882932	0
431	263531	45.850906891779	0
431	264154	45.855906891779	0
431	265150	45.860906891779	0
431	265662	45.865906891779	0
431	266262	45.870906891779	0
431	266664	45.877279056879	0
431	267157	45.882279056879	0
431	267885	45.887279056879	0
431	268146	45.892279056879	0
431	269174	45.89984214304	0
431	269175	45.90484214304	0
431	269781	45.913376901328	0
431	270177	45.918376901328	0
431	270181	45.923376901328	0
431	270658	45.930946912312	0
431	270659	45.935946912312	0
431	270877	46.505	1
431	270887	46.51	0
431	273151	46.517194147077	53
431	275481	46.522194147077	0
431	277403	46.528759185737	0
431	278549	46.533759185737	16
431	279692	46.538759185737	0
431	281428	46.543759185737	0
431	283018	46.550140093196	4
431	284286	46.555140093196	0
431	286373	46.562456071568	3
431	287943	46.567456071568	13
431	289566	46.572456071568	0
431	290473	46.577456071568	0
431	293941	46.587541551726	0
431	295221	46.592541551726	0
431	304106	46.628949677936	0
431	305883	46.633949677936	0
431	308181	46.643549283698	0
431	309423	46.648549283698	0
431	312214	46.661390984873	0
431	313797	46.666390984873	0
431	316050	46.675562850879	0
431	317682	46.680562850879	0
431	318942	46.685562850879	0
431	324833	46.710568400562	0
431	326336	46.715568400562	0
431	327599	46.720568400562	0
431	329198	46.725671625343	0
431	330324	46.730671625343	0
431	332141	46.736787186916	0
431	333414	46.741787186916	0
431	335125	46.746787186916	0
431	336272	46.751787186916	0
431	337377	46.756787186916	0
431	338284	46.761787186916	0
431	339487	46.768432243956	0
431	341055	46.773432243956	0
431	342078	46.778432243956	0
431	343471	46.783432243956	0
431	345050	46.788432243956	0
431	346469	46.793432243956	0
431	347745	46.798432243956	0
431	348771	46.803432243956	0
431	349588	46.808432243956	0
431	350526	46.813432243956	0
431	352048	46.818432243956	0
431	353311	46.823432243956	0
431	354669	46.828432243956	0
431	355800	46.834082974888	0
431	357350	46.839082974888	0
431	358857	46.844082974888	0
431	360385	46.849082974888	0
431	361746	46.854082974888	0
431	362351	46.859082974888	0
431	365229	46.875485643718	0
431	366232	46.880485643718	0
431	367603	46.886121701487	0
431	368615	46.891121701487	0
431	369732	46.896121701487	0
431	370456	46.901121701487	0
431	372633	46.912941672002	0
431	373252	46.917941672002	0
431	374784	46.925930352135	0
431	375406	46.930930352135	0
431	377606	46.943409005338	0
431	377883	46.948409005338	0
431	381678	46.977355167929	0
431	382175	46.982355167929	0
431	382705	46.989387273294	0
431	382706	46.994387273294	0
431	383841	47.004160283535	0
431	384594	47.009160283535	0
431	385016	47.014692890387	0
431	385553	47.019692890387	0
431	385558	47.024692890387	0
431	386540	47.032403371954	0
431	387337	47.037403371954	0
431	387338	47.042403371954	0
431	388666	47.058311004537	0
431	388667	47.063311004537	0
431	389157	47.08228618175	0
431	389161	47.08728618175	0
431	389699	47.505	49
431	391908	47.51	0
431	393934	47.515	0
431	395364	47.52	43
431	396892	47.525	0
431	397766	47.53	0
431	399605	47.535	2
431	401346	47.54	32
431	403045	47.545	33
431	405198	47.55	29
431	407082	47.555	79
431	408777	47.56	23
431	411408	47.565	31
431	413434	47.57	43
431	415423	47.575	55
431	417537	47.58	59
431	419228	47.585	3
431	421009	47.59	15
431	422631	47.595	5
431	423998	47.6	3
431	425657	47.605	10
431	427332	47.61	50
431	427955	47.615	0
431	430687	47.622441369488	26
431	432037	47.627441369488	25
431	433231	47.632441369488	32
431	434592	47.637441369488	0
431	437748	47.651948407561	0
431	438896	47.656948407561	25
431	440480	47.661948407561	0
431	442981	47.673063486357	30
431	444248	47.678063486357	0
431	446471	47.684495221953	55
431	447643	47.689495221953	0
431	449042	47.694495221953	0
431	450677	47.699495221953	0
431	452045	47.704495221953	0
431	453273	47.709495221953	0
431	454314	47.714495221953	0
431	455416	47.719495221953	0
431	456599	47.725394208718	0
431	457847	47.730394208718	0
431	458969	47.735394208718	0
431	459764	47.740394208718	0
431	462293	47.753187042606	0
431	463438	47.758187042606	0
431	465329	47.765561009645	0
431	466519	47.770561009645	0
431	469024	47.781099999112	0
431	469928	47.786099999112	0
431	471205	47.791099999112	0
431	472479	47.796099999112	0
431	473848	47.801099999112	0
431	475532	47.811612009155	0
431	476544	47.816612009155	0
431	477298	47.821612009155	0
431	478951	47.826612009155	0
431	480310	47.831612009155	0
431	481093	47.836612009155	37
431	482090	47.841612009155	0
431	483228	47.846612009155	0
431	484009	47.851612009155	0
431	485503	47.856612009155	0
431	487003	47.864622580195	0
431	488023	47.869622580195	0
431	488919	47.874622580195	0
431	490095	47.879622580195	0
431	490881	47.884622580195	0
431	491782	47.889622580195	0
431	493087	47.894622580195	0
431	494048	47.899622580195	0
431	494700	47.904622580195	0
431	496733	47.912268166723	0
431	497739	47.917268166723	0
431	498266	47.922268166723	0
431	499799	47.930495765069	0
431	500417	47.935495765069	0
431	501096	47.940495765069	0
431	502008	47.945495765069	0
431	502982	47.950495765069	0
431	504032	47.959907216393	0
431	504159	47.964907216393	0
431	505087	47.969907216393	0
431	506085	47.974907216393	0
431	506987	47.979907216393	0
431	507771	47.984907216393	0
431	511710	48.008327428696	0
431	511827	48.013327428696	0
431	512465	48.019490078005	0
431	513135	48.024490078005	0
431	514113	48.031865112802	0
431	514650	48.036865112802	0
431	515065	48.041865112802	0
431	515599	48.046865112802	0
431	516198	48.051865112802	0
431	517206	48.056865112802	0
431	517625	48.061865112802	0
431	518160	48.11682722001	0
431	518161	48.12182722001	0
431	518168	48.505	1
431	518178	48.51	0
431	519676	48.517379670749	28
431	521506	48.522379670749	0
431	522749	48.527379670749	0
431	523802	48.532379670749	68
431	525859	48.537379670749	133
431	528669	48.542379670749	79
431	532158	48.547379670749	23
431	535378	48.552379670749	49
431	537431	48.557379670749	100
431	539739	48.562379670749	65
431	541711	48.567379670749	80
431	543584	48.572379670749	65
431	545312	48.577379670749	32
431	546833	48.582379670749	30
431	548023	48.587379670749	24
431	549298	48.592379670749	24
431	550764	48.597379670749	64
431	552313	48.602379670749	68
431	553339	48.607379670749	32
431	554998	48.612379670749	35
431	556090	48.617379670749	27
431	557149	48.622379670749	0
431	558257	48.627379670749	0
431	559401	48.632379670749	0
431	560056	48.637379670749	0
431	561061	48.642379670749	36
431	562532	48.647379670749	0
431	563321	48.652379670749	0
431	564534	48.657379670749	27
431	565578	48.662379670749	39
431	566196	48.667379670749	0
431	567239	48.672379670749	0
431	568252	48.677379670749	29
431	569380	48.682379670749	28
431	570046	48.687379670749	0
431	570671	48.692379670749	0
431	572442	48.708716228335	0
431	573057	48.713716228335	0
431	574274	48.718716228335	18
431	574936	48.723716228335	0
431	576364	48.73080089271	0
431	576993	48.73580089271	0
431	578000	48.747520165435	0
431	578794	48.752520165435	0
431	579326	48.757520165435	0
431	579835	48.762520165435	0
431	580350	48.767520165435	0
431	581087	48.772520165435	0
431	582214	48.777520165435	0
431	582952	48.782520165435	0
431	583851	48.787709455378	0
431	583852	48.792709455378	0
431	584901	48.801532810773	0
431	585900	48.806532810773	0
431	586015	48.811532810773	0
431	586425	48.816931363597	0
431	586540	48.821931363597	0
431	586943	48.828624057258	0
431	586944	48.833624057258	0
431	587302	49.505	1
431	588370	49.51	38
431	590487	49.515	0
431	592096	49.52	0
431	593303	49.525	0
431	594721	49.53	0
431	596246	49.535	0
431	597280	49.54	0
431	598938	49.545	0
431	600205	49.55	0
431	601129	49.555	0
431	604346	49.56926379451	0
431	605472	49.57426379451	0
431	606753	49.57926379451	0
431	607785	49.58426379451	0
431	609080	49.590495220182	0
431	610122	49.595495220182	0
431	611005	49.600495220182	0
431	612887	49.607827448069	0
431	613311	49.612827448069	0
431	614198	49.617827448069	0
431	615132	49.622827448069	0
431	616395	49.627827448069	0
431	617647	49.632827448069	0
431	618697	49.638802117215	0
431	619630	49.643802117215	0
431	620772	49.648802117215	0
431	621851	49.653802117215	0
431	622962	49.658802117215	0
431	624831	49.665894930744	0
431	625442	49.670894930744	0
431	626366	49.675894930744	0
431	631304	49.70055078679	0
431	632357	49.70555078679	0
431	633487	49.71055078679	0
431	634491	49.71555078679	0
431	636530	49.731856944188	0
431	637941	49.736856944188	0
431	639274	49.741856944188	0
431	640433	49.7483840829	0
431	641817	49.7533840829	0
431	643175	49.7583840829	0
431	644070	49.7633840829	0
431	645067	49.7683840829	0
431	648285	49.784603351162	0
431	649094	49.789603351162	0
431	649834	49.794603351162	0
431	650612	49.799603351162	0
431	651765	49.804603351162	0
431	653223	49.809603351162	0
431	653996	49.815056958463	0
431	654641	49.820056958463	0
431	655273	49.825056958463	0
431	656282	49.830056958463	0
431	657512	49.836141076279	0
431	658151	49.841141076279	0
431	658267	49.846141076279	0
431	659451	49.852315992538	0
431	660410	49.857315992538	0
431	661358	49.862315992538	0
431	661995	49.867315992538	0
431	662510	49.872315992538	0
431	665239	49.884750992143	0
431	666285	49.889750992143	0
431	667083	49.894750992143	0
431	667600	49.899750992143	0
431	669594	49.918743349151	0
431	669595	49.923743349151	0
431	670371	49.938640700922	0
431	670882	49.943640700922	0
431	670883	49.948640700922	0
431	672284	49.95983299194	0
431	672429	49.96483299194	0
431	672695	50.505	1
431	672816	50.51	0
431	675144	50.516859120795	37
431	676610	50.521859120795	0
431	680086	50.535408131563	0
431	681278	50.540408131563	0
431	682096	50.545408131563	0
431	685350	50.558582856058	0
431	686637	50.563582856058	0
431	687577	50.568582856058	0
431	688713	50.573582856058	0
431	689636	50.578582856058	0
431	691047	50.583582856058	0
431	692368	50.588582856058	0
431	693408	50.593582856058	0
431	694693	50.598582856058	0
431	696231	50.603582856058	0
431	696988	50.608582856058	0
431	697806	50.613582856058	0
431	698969	50.620481124145	0
431	699933	50.625481124145	0
431	700713	50.630481124145	0
431	702083	50.635481124145	0
431	703859	50.643623195965	0
431	704771	50.648623195965	0
431	705682	50.653623195965	0
431	706484	50.658623195965	0
431	708572	50.667009409692	0
431	709451	50.672009409692	0
431	710893	50.677009409692	0
431	711815	50.683759775886	0
431	712708	50.688759775886	0
431	714373	50.698471042651	0
431	715486	50.703471042651	0
431	716516	50.708471042651	0
431	717671	50.713471042651	0
431	718320	50.718471042651	0
431	718966	50.723471042651	0
431	720113	50.728471042651	0
431	721058	50.733471042651	0
431	721957	50.738471042651	0
431	723218	50.743471042651	0
431	725760	50.756738521644	0
431	726799	50.761738521644	0
431	727720	50.766738521644	0
431	728469	50.771738521644	0
431	729035	50.776738521644	0
431	730313	50.781738521644	0
431	731447	50.786738521644	0
431	732443	50.791738521644	0
431	733451	50.796738521644	0
431	734481	50.803388438283	0
431	735361	50.808388438283	0
431	736640	50.813388438283	0
431	738306	50.819108679263	0
431	739479	50.824108679263	0
431	740564	50.829108679263	0
431	742622	50.837240153293	0
431	743232	50.842240153293	0
431	744759	50.853851576024	0
431	745601	50.858851576024	0
431	747030	50.867572529954	0
431	748189	50.872572529954	0
431	749159	50.877572529954	0
431	751055	50.885911083758	0
431	751323	50.890911083758	0
431	751825	50.895911083758	0
431	752832	50.905654882837	0
431	753362	50.910654882837	0
431	754084	50.915654882837	0
431	754590	50.920654882837	0
431	754711	50.925654882837	0
431	755664	50.930697149563	0
431	756178	50.935697149563	0
431	756923	50.940697149563	0
431	757457	50.947169424824	0
431	757458	50.952169424824	0
431	759110	50.968747033806	0
431	759255	50.973747033806	0
431	759801	50.992887756526	0
431	759802	50.997887756526	0
431	760060	51.505	1
431	760175	51.51	0
431	761486	51.515202003818	24
431	762517	51.520202003818	0
431	763424	51.525202003818	0
431	764449	51.530202003818	0
431	764992	51.535202003818	0
431	766548	51.540202003818	0
431	767336	51.545202003818	0
431	768491	51.550202003818	0
431	769715	51.555202003818	0
431	771229	51.561162449112	0
431	771895	51.566162449112	0
431	772820	51.571162449112	0
431	773703	51.576162449112	0
431	774577	51.581162449112	0
431	775977	51.589089323081	0
431	777012	51.594089323081	0
431	777906	51.599089323081	0
431	778794	51.604089323081	0
431	779701	51.609089323081	0
431	780471	51.615864628223	0
431	780870	51.620864628223	0
431	781387	51.625864628223	0
431	782780	51.630864628223	0
431	783865	51.635864628223	0
431	784635	51.640864628223	0
431	785635	51.645864628223	0
431	787432	51.658847026374	0
431	788592	51.663847026374	0
431	789741	51.668847026374	0
431	791251	51.673847026374	0
431	792007	51.678847026374	0
431	793802	51.690734179628	0
431	795066	51.695734179628	0
431	795837	51.700734179628	0
431	797470	51.707970263395	0
431	798001	51.712970263395	0
431	799216	51.717970263395	0
431	799724	51.722970263395	0
431	800591	51.729857339108	0
431	801209	51.734857339108	0
431	801721	51.742662615025	0
431	802220	51.747662615025	0
431	802224	51.752662615025	0
431	803986	51.772630523385	0
431	804495	51.777630523385	0
431	804611	51.782630523385	0
431	805997	51.805426434924	0
431	805998	51.810426434924	0
431	806650	51.826426284279	0
431	807284	51.831426284279	0
431	807823	51.836426284279	0
431	807824	51.841426284279	0
431	808370	51.865054550657	0
431	808371	51.870054550657	0
431	808647	52.505	1
431	808768	52.51	0
431	810210	52.515725565065	23
431	811338	52.520725565065	0
431	812477	52.525725565065	0
431	814190	52.530725565065	0
431	815384	52.535725565065	0
431	816741	52.540725565065	0
431	817282	52.545725565065	0
431	818190	52.550725565065	0
431	819228	52.555725565065	0
431	820172	52.560725565065	0
431	821441	52.565725565065	0
431	822097	52.570725565065	0
431	823270	52.575740248302	0
431	824296	52.580740248302	0
431	824934	52.585740248302	0
431	826138	52.590740248302	0
431	826933	52.595740248302	0
431	827704	52.600740248302	0
431	828704	52.605740248302	0
431	830604	52.617066881619	0
431	831384	52.622066881619	0
431	832162	52.627066881619	0
431	833452	52.634352153191	0
431	834360	52.639352153191	0
431	834989	52.644352153191	0
431	835666	52.652962102832	0
431	836481	52.657962102832	0
431	837272	52.662962102832	0
431	837947	52.667962102832	0
431	838736	52.672962102832	0
431	839596	52.677962102832	0
431	840153	52.684392910507	0
431	841147	52.689392910507	0
431	842433	52.694392910507	0
431	843206	52.699392910507	0
431	844670	52.707799543371	0
431	845647	52.712799543371	0
431	846278	52.717799543371	0
431	847065	52.723922906238	0
431	847193	52.728922906238	0
431	848326	52.735998765562	0
431	848970	52.740998765562	0
431	849491	52.745998765562	0
431	850504	52.750998765562	0
431	850893	52.755998765562	0
431	851160	52.760998765562	0
431	853089	52.775310629274	0
431	853726	52.780310629274	0
431	854427	52.785310629274	0
431	854814	52.790310629274	0
431	855355	52.79535904712	0
431	855745	52.80035904712	0
431	856590	53.505	1
431	857034	53.51	33
431	858516	53.515	0
431	860065	53.52	0
431	861277	53.525	0
431	862991	53.53	0
431	863784	53.535	0
431	865937	53.541937556299	0
431	867117	53.546937556299	0
431	867900	53.551937556299	0
431	869840	53.559714337758	0
431	870777	53.564714337758	0
431	871534	53.569714337758	0
431	872615	53.574809505421	0
431	873553	53.579809505421	0
431	874860	53.584809505421	0
431	875946	53.591439398424	0
431	877142	53.596439398424	0
431	878555	53.601439398424	0
431	879373	53.606439398424	0
431	882083	53.618737872137	0
431	883148	53.623737872137	0
431	884321	53.630665437796	0
431	885356	53.635665437796	0
431	887902	53.646452789196	0
431	889058	53.651452789196	0
431	890223	53.656452789196	0
431	891686	53.661452789196	0
431	892214	53.666452789196	0
431	894547	53.675448543799	0
431	895370	53.680448543799	0
431	896319	53.685448543799	0
431	897407	53.690448543799	0
431	898306	53.695448543799	0
431	899373	53.700448543799	0
431	900253	53.705448543799	0
431	902188	53.713665892177	0
431	903227	53.718665892177	0
431	904546	53.723665892177	0
431	905488	53.728665892177	0
431	906538	53.733665892177	0
431	907420	53.738665892177	0
431	908461	53.743665892177	0
431	909260	53.748665892177	0
431	910282	53.753665892177	0
431	911438	53.760307442479	0
431	912119	53.765307442479	0
431	913045	53.770307442479	0
431	913811	53.775307442479	0
431	914685	53.780307442479	0
431	915604	53.785307442479	0
431	917196	53.791168589244	0
431	917870	53.796168589244	0
431	919060	53.801168589244	0
431	919463	53.806168589244	0
431	921193	53.815305352422	0
431	921713	53.820305352422	0
431	921841	53.825305352422	0
431	923108	53.830644266722	0
431	924010	53.835644266722	0
431	924809	53.840644266722	0
431	925462	53.853102298673	0
431	926526	53.858102298673	0
431	927290	53.863102298673	0
431	928244	53.869828280714	0
431	928359	53.874828280714	0
431	929316	53.880951454241	0