file 148536 1351792030                                          
version 2
run AODVScenario_1g-0-20121101-17:42:16-2864
attr configname AODVScenario_1g
attr datetime 20121101-17:42:16
attr experiment AODVScenario_1g
attr inifile AODV.ini
attr iterationvars ""
attr iterationvars2 $repetition=0
attr measurement ""
attr network csma802154net
attr processid 2864
attr repetition 0
attr replication #0
attr resultdir results
attr runnumber 0
attr seedset 0

vector 511  csma802154net.dataCentricNetworkMan  RREQPacketFrequency  ETV
vector 512  csma802154net.dataCentricNetworkMan  DiscoveryPacketFrequency  ETV
vector 513  csma802154net.dataCentricNetworkMan  RegisterPacketFrequency  ETV
vector 514  csma802154net.dataCentricNetworkMan  RReplyPacketFrequency  ETV
vector 515  csma802154net.dataCentricNetworkMan  AODVDataPacketFrequency  ETV
vector 518  csma802154net.dataCentricNetworkMan  pendingRegistrationVector  ETV
vector 517  csma802154net.dataCentricNetworkMan  pendingRREQVector  ETV
vector 538  csma802154net.fixhost[19].udpApp  "End-to-end delay"  ETV
vector 508  csma802154net.dataCentricNetworkMan  dataPacketE2EDelay  ETV
vector 539  csma802154net.fixhost[20].udpApp  "End-to-end delay"  ETV
vector 525  csma802154net.fixhost[6].udpApp  "End-to-end delay"  ETV
vector 528  csma802154net.fixhost[9].udpApp  "End-to-end delay"  ETV
vector 536  csma802154net.fixhost[17].udpApp  "End-to-end delay"  ETV
vector 520  csma802154net.fixhost[1].udpApp  "End-to-end delay"  ETV
vector 521  csma802154net.fixhost[2].udpApp  "End-to-end delay"  ETV
vector 522  csma802154net.fixhost[3].udpApp  "End-to-end delay"  ETV
vector 529  csma802154net.fixhost[10].udpApp  "End-to-end delay"  ETV
vector 535  csma802154net.fixhost[16].udpApp  "End-to-end delay"  ETV
vector 530  csma802154net.fixhost[11].udpApp  "End-to-end delay"  ETV
508	1801 6198 596904 2943847 70.013756059794 7273.038732102238 137 0.010556043991 0.193086746063 4.938290768357 0.25755388627818
511	7999 27042 1005 2944167 1.005 7273.04001 925 0 186 34102 3539640
512	35041 26515 1005 2944167 1.005 7273.04001 925 0 0 0 0
513	61556 26515 1005 2944167 1.005 7273.04001 925 0 1 12 12
514	88071 26518 1005 2944167 1.005 7273.04001 925 0 56 324 6802
515	114589 26519 1005 2944167 1.005 7273.04001 925 0 55 658 6208
517	141108 712 57965 1145567 3.008366021223 1272.087838709065 24 0 1 12 12
518	141820 518 56702 522640 3 14.029996054561 23 0 2 26 40
520	142338 577 608495 2940112 73.034436080196 7273.02263606652 13 0.01783606652 0.06711606652 0.450588892108 0.019432540798182
521	142915 593 609893 2943847 73.056684115914 7273.038732102238 13 0.031444102238 0.078412102238 0.662877356441 0.036268393237047
522	143508 589 611800 2942919 73.067812137198 7273.034644123524 13 0.032156123521 0.142556123524 0.711341633153 0.049378958274578
525	144097 585 598112 2923171 70.04127604399 7270.025772043991 13 0.010556043991 0.043052043991 0.266036571879 0.0068196458862117
528	144682 593 600928 2928071 71.018516053175 7271.046564066106 13 0.018196053176 0.046564066106 0.313620820583 0.0082122449465281
529	145275 504 1115610 2932675 1272.02896406571 7272.028676084582 11 0.023236084581 0.032836084581 0.323756911527 0.0096184462985467
530	145779 506 1169086 2934210 1272.193086746063 7272.041644122473 11 0.040044122473 0.193086746063 0.700328003526 0.06566380104119
535	146285 504 1116632 2936035 1272.03532409598 7272.065644147688 11 0.032364147687 0.093908147686 0.589821572854 0.035213799029105
536	146789 561 601522 2926561 71.023884075169 7271.0197560881 13 0.01627607517 0.048804088099 0.395821106506 0.01367830187856
538	147350 593 596904 2921959 70.013756059794 7270.014076059794 13 0.010876059795 0.039852059795 0.222380777328 0.0048752627702669
539	147943 593 597501 2922560 70.018516086342 7270.017556086342 13 0.014996086343 0.044932086343 0.301717122452 0.0083924921179614
