version 2
run AODVScenario_1f-47-20121119-16:17:18-616
attr configname AODVScenario_1f
attr datetime 20121119-16:17:18
attr experiment AODVScenario_1f
attr inifile AODV.ini
attr iterationvars $numNodes=97
attr iterationvars2 "$numNodes=97, $repetition=0"
attr measurement $numNodes=97
attr network csma802154net
attr numNodes 97
attr processid 616
attr repetition 0
attr replication #0
attr resultdir results
attr runnumber 47
attr seedset 47

vector 399  csma802154net.dataCentricNetworkMan  RREQPacketFrequency  ETV
vector 400  csma802154net.dataCentricNetworkMan  RERRPacketFrequency  ETV
vector 401  csma802154net.dataCentricNetworkMan  DiscoveryPacketFrequency  ETV
vector 402  csma802154net.dataCentricNetworkMan  RegisterPacketFrequency  ETV
vector 403  csma802154net.dataCentricNetworkMan  RReplyPacketFrequency  ETV
vector 404  csma802154net.dataCentricNetworkMan  AODVDataPacketFrequency  ETV
vector 411  csma802154net.dataCentricNetworkMan  pendingRegistrationVector  ETV
vector 410  csma802154net.dataCentricNetworkMan  pendingRREQVector  ETV
vector 408  csma802154net.dataCentricNetworkMan  PendingDataPacketsVector  ETV
vector 426  csma802154net.fixhost[14].udpApp  "End-to-end delay"  ETV
vector 396  csma802154net.dataCentricNetworkMan  dataPacketE2EDelay  ETV
vector 420  csma802154net.fixhost[8].udpApp  "End-to-end delay"  ETV
vector 422  csma802154net.fixhost[10].udpApp  "End-to-end delay"  ETV
vector 423  csma802154net.fixhost[11].udpApp  "End-to-end delay"  ETV
vector 424  csma802154net.fixhost[12].udpApp  "End-to-end delay"  ETV
vector 425  csma802154net.fixhost[13].udpApp  "End-to-end delay"  ETV
vector 413  csma802154net.fixhost[1].udpApp  "End-to-end delay"  ETV
vector 417  csma802154net.fixhost[5].udpApp  "End-to-end delay"  ETV
vector 427  csma802154net.fixhost[15].udpApp  "End-to-end delay"  ETV
396	932160	70.011196037275	0.011196037275
396	934598	71.017236055834	0.017236055834
396	935583	71.053924082017	0.053924082017
396	939016	72.025796084778	0.025796084778
396	940452	72.053844111298	0.053844111298
396	941407	72.060812116034	0.060812116034
396	945377	73.032516086367	0.032516086367
396	947671	73.08509212541	0.08509212541
396	948661	73.095580150669	0.095580150669
396	1068842	670.012156037277	0.012156037277
396	1071080	671.017876055834	0.017876055834
396	1072059	671.027044082017	0.027044082017
396	1075749	672.027396084778	0.027396084778
396	1077198	672.035924116034	0.035924116034
396	1077696	672.040900111298	0.040900111298
396	1081149	673.026756086367	0.026756086367
396	1083926	673.065924155453	0.065924155453
396	1084925	673.090172178543	0.090172178543
396	1205106	1270.013436037277	0.013436037277
396	1207825	1271.018124055834	0.018124055834
396	1208326	1271.024804082015	0.024804082015
396	1211559	1272.025476084777	0.025476084777
396	1213469	1272.040652116033	0.040652116033
396	1213968	1272.050180111297	0.050180111297
396	1217218	1273.027076086364	0.027076086364
396	1220013	1273.045804125408	0.045804125408
396	1221012	1273.072220150667	0.072220150667
396	1341290	1870.013116037276	0.013116037276
396	1344000	1871.022956082017	0.022956082017
396	1344497	1871.025164055834	0.025164055834
396	1347959	1872.025476084778	0.025476084778
396	1349628	1872.034964116034	0.034964116034
396	1350127	1872.041684111298	0.041684111298
396	1353864	1873.027076086367	0.027076086367
396	1361819	1873.18297212541	0.18297212541
396	1362814	1873.190900150668	0.190900150668
396	1482994	2470.009916037276	0.009916037276
396	1485704	2471.019756082017	0.019756082017
396	1486205	2471.030212055833	0.030212055833
396	1489888	2472.025156084778	0.025156084778
396	1490970	2472.032404111298	0.032404111298
396	1492038	2472.061060116033	0.061060116033
396	1496004	2473.030236116409	0.030236116409
396	1498807	2473.066492151079	0.066492151079
396	1499806	2473.091100150671	0.091100150671
396	1619987	3070.012796037276	0.012796037276
396	1622703	3071.022356055834	0.022356055834
396	1623204	3071.026084082016	0.026084082016
396	1626881	3072.025796084777	0.025796084777
396	1627857	3072.033044111297	0.033044111297
396	1628811	3072.038092116032	0.038092116032
396	1632079	3073.028676086365	0.028676086365
396	1634364	3073.045484125409	0.045484125409
396	1635848	3073.078300150669	0.078300150669
396	1756126	3670.013116037277	0.013116037277
396	1758364	3671.015956055834	0.015956055834
396	1759342	3671.023844082016	0.023844082016
396	1763138	3672.026756084777	0.026756084777
396	1764223	3672.035852111297	0.035852111297
396	1765184	3672.057932116033	0.057932116033
396	1769423	3673.03531614645	0.03531614645
396	1771013	3673.05059618112	0.05059618112
396	1772006	3673.05692420421	0.05692420421
396	1892187	4270.013436037277	0.013436037277
396	1894910	4271.020684055832	0.020684055832
396	1895407	4271.023204082015	0.023204082015
396	1898965	4272.023876084774	0.023876084774
396	1900053	4272.032404116031	0.032404116031
396	1901027	4272.038732111294	0.038732111294
396	1905250	4273.03819614645	0.03819614645
396	1907050	4273.052516181119	0.052516181119
396	1908050	4273.077404204209	0.077404204209
396	2028231	4870.013756037277	0.013756037277
396	2030950	4871.023884055834	0.023884055834
396	2031447	4871.025836082017	0.025836082017
396	2036065	4872.029564084777	0.029564084777
396	2036556	4872.033044116034	0.033044116034
396	2037056	4872.044172111298	0.044172111298
396	2040311	4873.026436086367	0.026436086367
396	2043101	4873.050244155453	0.050244155453
396	2044100	4873.075452178543	0.075452178543
396	2164378	5470.011516037277	0.011516037277
396	2166616	5471.018196055834	0.018196055834
396	2167595	5471.029284082017	0.029284082017
396	2171029	5472.031236084778	0.031236084778
396	2172659	5472.057044116034	0.057044116034
396	2173644	5472.092420111298	0.092420111298
396	2178401	5473.035244146449	0.035244146449
396	2179692	5473.04508418112	0.04508418112
396	2181215	5473.06773220421	0.06773220421
396	2301396	6070.014396037277	0.014396037277
396	2303832	6071.018836055833	0.018836055833
396	2304815	6071.047844082015	0.047844082015
396	2309460	6072.031516111298	0.031516111298
396	2309937	6072.033364116033	0.033364116033
396	2310449	6072.040620084778	0.040620084778
396	2314398	6073.030876116408	0.030876116408
396	2315980	6073.043524151077	0.043524151077
396	2317465	6073.062124150671	0.062124150671
396	2437646	6670.012796037277	0.012796037277
396	2439883	6671.014996055833	0.014996055833
396	2440862	6671.025444082016	0.025444082016
396	2444996	6672.029956084778	0.029956084778
396	2445587	6672.032404111297	0.032404111297
396	2446654	6672.061132116033	0.061132116033
396	2450366	6673.024836086366	0.024836086366
396	2452167	6673.03556412541	0.03556412541
396	2453651	6673.064292150669	0.064292150669
396	2573929	7270.013116037277	0.013116037277
396	2576167	7271.016596055834	0.016596055834
396	2577145	7271.024804082017	0.024804082017
396	2581029	7272.027076084778	0.027076084778
396	2581999	7272.035924111298	0.035924111298
396	2582959	7272.053204116034	0.053204116034
396	2586227	7273.026756086367	0.026756086367
396	2588507	7273.041324125411	0.041324125411
396	2589991	7273.069412150671	0.069412150671
399	769	1.005	1
399	776	1.01	0
399	1217	1.019239442488	28
399	1910	1.024239442488	50
399	3028	1.029239442488	114
399	5354	1.034239442488	107
399	7183	1.039239442488	78
399	9352	1.044239442488	115
399	11158	1.049239442488	44
399	13207	1.054239442488	115
399	14750	1.059239442488	64
399	15848	1.064239442488	71
399	17524	1.069239442488	88
399	18003	1.074239442488	5
399	19046	1.079239442488	86
399	20128	1.084239442488	96
399	20701	1.089239442488	55
399	21417	1.094239442488	42
399	22008	1.099239442488	58
399	22712	1.104239442488	81
399	23479	1.109239442488	51
399	23802	1.114239442488	25
399	24491	1.119239442488	80
399	24492	1.124239442488	0
399	25065	1.132546345876	53
399	25852	1.137546345876	57
399	26720	1.142546345876	96
399	27287	1.147546345876	52
399	27963	1.152546345876	76
399	28421	1.157546345876	29
399	29129	1.162546345876	61
399	29436	1.167546345876	43
399	29437	1.172546345876	0
399	29875	1.204162467875	48
399	29876	1.209162467875	0
399	38310	43.505	1
399	38423	43.51	0
399	40213	43.51583888645	41
399	41937	43.52083888645	0
399	42898	43.52583888645	0
399	43838	43.53083888645	0
399	45412	43.53979708954	0
399	46482	43.54479708954	0
399	47652	43.54979708954	0
399	48674	43.55479708954	0
399	50576	43.567248888496	0
399	51304	43.572248888496	0
399	52329	43.577248888496	0
399	55628	43.593463643007	0
399	56760	43.598463643007	0
399	61183	43.622398619193	0
399	62105	43.627398619193	0
399	63163	43.632398619193	0
399	64045	43.637398619193	0
399	65229	43.642860863903	0
399	66376	43.647860863903	0
399	67576	43.653881726307	0
399	68876	43.658881726307	0
399	69936	43.663881726307	0
399	71156	43.668881726307	0
399	71983	43.673881726307	0
399	72915	43.678881726307	0
399	75492	43.692445373784	0
399	76438	43.697445373784	0
399	77251	43.702445373784	0
399	78336	43.707445373784	0
399	79392	43.712445373784	0
399	80017	43.717445373784	0
399	80962	43.722445373784	0
399	81335	43.727445373784	0
399	82871	43.7350297178	0
399	83833	43.7400297178	0
399	85267	43.7450297178	0
399	86850	43.75247406561	0
399	88103	43.75747406561	0
399	88844	43.76247406561	0
399	89674	43.76747406561	0
399	90509	43.77247406561	0
399	93028	43.784500923503	0
399	94059	43.789500923503	0
399	94885	43.794500923503	0
399	96211	43.799500923503	0
399	96787	43.804500923503	0
399	98300	43.813397708712	0
399	99126	43.818397708712	0
399	99959	43.823397708712	0
399	100798	43.828397708712	0
399	102459	43.837338673487	0
399	103214	43.842338673487	0
399	104482	43.849218320065	0
399	105408	43.854218320065	0
399	106452	43.859218320065	0
399	107148	43.864218320065	0
399	107950	43.869218320065	0
399	109461	43.877185914711	0
399	110375	43.882185914711	0
399	111089	43.887185914711	0
399	112055	43.892185914711	0
399	113020	43.897185914711	0
399	113610	43.902185914711	0
399	115618	43.914852890024	0
399	116465	43.919852890024	0
399	117416	43.924852890024	0
399	118002	43.929852890024	0
399	118842	43.934852890024	0
399	119330	43.939852890024	0
399	120287	43.949019190412	0
399	121104	43.954019190412	0
399	123391	43.988030123524	0
399	123630	43.993030123524	0
399	124888	44.001681750493	0
399	125768	44.006681750493	0
399	125769	44.011681750493	0
399	125775	44.025492059569	0
399	126247	44.030492059569	0
399	126254	44.505	1
399	126261	44.51	0
399	128966	44.520434787352	50
399	131086	44.525434787352	0
399	132250	44.530434787352	0
399	133728	44.535434787352	0
399	134378	44.540434787352	0
399	135935	44.545434787352	0
399	137680	44.550434787352	0
399	139122	44.555434787352	0
399	140277	44.560434787352	0
399	141458	44.56664981289	0
399	142723	44.57164981289	0
399	143896	44.57664981289	0
399	145056	44.58164981289	0
399	146703	44.588696154005	0
399	147674	44.593696154005	0
399	148510	44.598696154005	0
399	150433	44.608753823128	0
399	151171	44.613753823128	0
399	152188	44.618753823128	0
399	153893	44.625758434374	0
399	154757	44.630758434374	0
399	156964	44.644315968575	0
399	158004	44.649315968575	0
399	160195	44.659002063706	0
399	161338	44.664002063706	0
399	164923	44.682785836461	0
399	166362	44.687785836461	0
399	167899	44.696763992045	0
399	168641	44.701763992045	0
399	170539	44.711232264046	0
399	171668	44.716232264046	0
399	173257	44.722259983595	0
399	174317	44.727259983595	0
399	175455	44.732259983595	0
399	176829	44.737277874671	0
399	177647	44.742277874671	0
399	178556	44.747277874671	0
399	179812	44.755452853434	0
399	181027	44.760452853434	0
399	184014	44.77260843346	0
399	185013	44.77760843346	0
399	186505	44.784797196198	0
399	187748	44.789797196198	0
399	188840	44.794797196198	0
399	189844	44.799797196198	0
399	192452	44.812036865614	0
399	193603	44.817036865614	0
399	194504	44.822036865614	0
399	195458	44.827036865614	0
399	196375	44.832036865614	0
399	199963	44.850651734483	0
399	200771	44.855651734483	0
399	201819	44.860651734483	0
399	202432	44.865651734483	0
399	203169	44.870651734483	0
399	204266	44.875651734483	0
399	204958	44.880651734483	0
399	206991	44.891391051414	0
399	208106	44.896391051414	0
399	209064	44.901391051414	0
399	209987	44.906391051414	0
399	210599	44.911391051414	0
399	211424	44.916391051414	0
399	212146	44.921391051414	0
399	212931	44.926391051414	0
399	214265	44.934986678198	0
399	215392	44.939986678198	0
399	216003	44.944986678198	0
399	217236	44.952614457894	0
399	217723	44.957614457894	0
399	218311	44.962614457894	0
399	218925	44.967614457894	0
399	219426	44.972614457894	0
399	220046	44.977614457894	0
399	220538	44.982614457894	0
399	221412	44.987614457894	0
399	221982	44.992614457894	0
399	222561	44.998599123582	0
399	223465	45.003599123582	0
399	223466	45.008599123582	0
399	224974	45.029891730325	0
399	225452	45.034891730325	0
399	225831	45.039891730325	0
399	226748	45.044891730325	0
399	227103	45.049891730325	0
399	228057	45.054891730325	0
399	228182	45.059891730325	0
399	229380	45.071423978967	0
399	229384	45.076423978967	0
399	229856	45.505	1
399	230583	45.51	46
399	232376	45.515	0
399	234105	45.52	0
399	235280	45.525	0
399	236308	45.53	0
399	237388	45.536361299593	0
399	238683	45.541361299593	0
399	240222	45.548147441753	0
399	241391	45.553147441753	0
399	246148	45.576562505373	0
399	247428	45.581562505373	0
399	250707	45.593853477701	0
399	251777	45.598853477701	0
399	254207	45.608529143651	0
399	255318	45.613529143651	0
399	257640	45.625129462977	0
399	258380	45.630129462977	0
399	259686	45.635129462977	0
399	260954	45.640129462977	0
399	268903	45.676773716806	0
399	269741	45.681773716806	0
399	270925	45.686773716806	0
399	273922	45.701599299591	0
399	275273	45.706599299591	0
399	276428	45.711599299591	0
399	277796	45.716599299591	0
399	278747	45.721599299591	0
399	279705	45.726599299591	0
399	281250	45.732413697647	0
399	281964	45.737413697647	0
399	282694	45.742413697647	0
399	283773	45.747413697647	0
399	284812	45.752413697647	0
399	285973	45.75873243205	0
399	286647	45.76373243205	0
399	288057	45.769177449761	0
399	288771	45.774177449761	0
399	290104	45.779177449761	0
399	291282	45.784177449761	0
399	292353	45.789177449761	0
399	293193	45.794177449761	0
399	294083	45.799177449761	0
399	295011	45.804177449761	0
399	296153	45.809878928734	0
399	297088	45.814878928734	0
399	298756	45.825272159408	0
399	299597	45.830272159408	0
399	300518	45.835664772715	0
399	301988	45.840664772715	0
399	302678	45.845664772715	0
399	305680	45.864496185679	0
399	306622	45.869496185679	0
399	307333	45.874496185679	0
399	311404	45.89758244717	0
399	312256	45.90258244717	0
399	313328	45.90758244717	0
399	314229	45.91258244717	0
399	314983	45.91758244717	0
399	315576	45.92258244717	0
399	316792	45.930018466329	0
399	317519	45.935018466329	0
399	317771	45.940018466329	0
399	318577	45.945018466329	0
399	319305	45.950018466329	0
399	319921	45.955018466329	0
399	319922	45.960018466329	0
399	320908	45.969252962436	0
399	321466	45.974252962436	0
399	321861	45.979252962436	0
399	323037	46.001624394438	0
399	323038	46.006624394438	0
399	323541	46.022711753809	0
399	323648	46.027711753809	0
399	324345	46.03288439424	0
399	324958	46.03788439424	0
399	325327	46.04288439424	0
399	325471	46.04788439424	0
399	325478	46.505	1
399	325488	46.51	0
399	326962	46.517694519553	31
399	328534	46.522694519553	0
399	329534	46.527694519553	0
399	330698	46.532694519553	0
399	331706	46.537694519553	0
399	333076	46.542694519553	0
399	333930	46.547694519553	0
399	335071	46.552694519553	0
399	336827	46.562542135819	0
399	338199	46.567542135819	0
399	339280	46.572542135819	0
399	339912	46.577542135819	0
399	340773	46.582542135819	0
399	341695	46.587542135819	0
399	342539	46.592542135819	0
399	345151	46.608543362895	0
399	345906	46.613543362895	0
399	346677	46.618543362895	0
399	348178	46.623543362895	0
399	349208	46.628543362895	0
399	350442	46.633543362895	0
399	351082	46.638543362895	0
399	352039	46.643543362895	0
399	352725	46.648543362895	0
399	353710	46.654100076096	0
399	354657	46.659100076096	0
399	355511	46.664100076096	0
399	356461	46.669100076096	0
399	358369	46.682903387272	0
399	358972	46.687903387272	0
399	359677	46.692903387272	0
399	360641	46.697903387272	0
399	361623	46.703878284301	0
399	362323	46.708878284301	0
399	363044	46.713878284301	0
399	364056	46.718878284301	0
399	364537	46.723878284301	0
399	364892	46.728878284301	0
399	365620	46.733878284301	0
399	366540	46.738878284301	0
399	367394	46.743878284301	0
399	368124	46.748878284301	0
399	369200	46.754388261994	0
399	369790	46.759388261994	0
399	371097	46.764388261994	0
399	371344	46.769388261994	0
399	372312	46.780253954627	0
399	373123	46.785253954627	0
399	373866	46.790253954627	0
399	374356	46.795253954627	0
399	375555	46.80368407094	0
399	375944	46.80868407094	0
399	377352	46.832788290862	0
399	377717	46.837788290862	0
399	377861	46.842788290862	0
399	378361	46.858924521422	0
399	378362	46.863924521422	0
399	379355	46.896782912888	0
399	379843	46.901782912888	0
399	379844	46.906782912888	0
399	380158	47.505	1
399	381298	47.51	36
399	382705	47.515	0
399	383951	47.52	0
399	384814	47.525	0
399	386237	47.53	0
399	387816	47.535	0
399	388871	47.54	0
399	390045	47.545794308341	0
399	391002	47.550794308341	0
399	391785	47.555794308341	0
399	392815	47.560794308341	0
399	393976	47.565794308341	0
399	395167	47.570794308341	0
399	396264	47.575794308341	0
399	397228	47.580794308341	0
399	398604	47.585794308341	0
399	399579	47.590794308341	0
399	400327	47.595794308341	0
399	401827	47.604803687261	0
399	402554	47.609803687261	0
399	403471	47.614803687261	0
399	404242	47.619803687261	0
399	405176	47.624803687261	0
399	405943	47.629803687261	0
399	406910	47.634803687261	0
399	407722	47.639803687261	0
399	408248	47.644803687261	0
399	409206	47.649803687261	0
399	410111	47.654803687261	0
399	411040	47.659803687261	0
399	411888	47.664803687261	0
399	412784	47.669803687261	0
399	413363	47.674803687261	0
399	416541	47.696385631262	0
399	417472	47.701385631262	0
399	418306	47.708449824841	0
399	419118	47.713449824841	0
399	420195	47.720610127593	0
399	421141	47.725610127593	0
399	422244	47.730610127593	0
399	423275	47.735610127593	0
399	424269	47.741356650893	0
399	425340	47.746356650893	0
399	426069	47.751356650893	0
399	427688	47.760348257061	0
399	428167	47.765348257061	0
399	429172	47.774900670221	0
399	429856	47.779900670221	0
399	431170	47.788555837465	0
399	431656	47.793555837465	0
399	432142	47.799678313848	0
399	433219	47.804678313848	0
399	434251	47.809678313848	0
399	434871	47.814678313848	0
399	435696	47.819678313848	0
399	436082	47.825720153326	0
399	436562	47.830720153326	0
399	437504	47.835720153326	0
399	438328	47.840720153326	0
399	438717	47.845720153326	0
399	439468	47.850720153326	0
399	439476	47.855720153326	0
399	440430	47.869593488437	0
399	440431	47.874593488437	0
399	440540	47.883888316764	0
399	440904	47.888888316764	0
399	441395	47.910486594196	0
399	441396	47.915486594196	0
399	441598	48.505	1
399	441605	48.51	0
399	443456	48.51903478212	29
399	444975	48.52403478212	0
399	445913	48.52903478212	0
399	446787	48.53403478212	0
399	447631	48.53903478212	0
399	448718	48.54403478212	0
399	450000	48.54903478212	0
399	451065	48.555010321715	0
399	452045	48.560010321715	0
399	452311	48.565010321715	0
399	453255	48.570010321715	0
399	455551	48.581493711808	0
399	456545	48.586493711808	0
399	457267	48.591493711808	0
399	458136	48.596493711808	0
399	459057	48.601493711808	0
399	460581	48.607545171449	0
399	461379	48.612545171449	0
399	462463	48.617851360126	0
399	463198	48.622851360126	0
399	463800	48.627851360126	0
399	464820	48.632986363947	0
399	465947	48.637986363947	0
399	466780	48.642986363947	0
399	467874	48.648990350257	0
399	468547	48.653990350257	0
399	470391	48.666378131567	0
399	471233	48.671378131567	0
399	472672	48.681657816869	0
399	472910	48.686657816869	0
399	474524	48.697553216703	0
399	475016	48.702553216703	0
399	476009	48.708451827632	0
399	476991	48.713451827632	0
399	477505	48.718451827632	0
399	478106	48.723451827632	0
399	478835	48.728451827632	0
399	479795	48.735341303259	0
399	480504	48.740341303259	0
399	480507	48.745341303259	0
399	480973	48.750341303259	0
399	481920	48.757145476343	0
399	482515	48.762145476343	0
399	483446	48.767145476343	0
399	484521	48.772145476343	0
399	484762	48.777145476343	0
399	485235	48.784469510107	0
399	485718	48.789469510107	0
399	486206	48.794469510107	0
399	486555	48.799469510107	0
399	486920	48.804469510107	0
399	488431	48.831292057138	0
399	488927	48.836292057138	0
399	489292	48.841292057138	0
399	489293	48.846292057138	0
399	489805	48.892199958366	0
399	489806	48.897199958366	0
399	490277	48.9165960706	0
399	490278	48.9215960706	0
399	490633	49.505	1
399	491324	49.51	24
399	493333	49.515	0
399	494795	49.52	0
399	496311	49.525	0
399	497274	49.53	0
399	498050	49.535	0
399	499236	49.54	0
399	500120	49.545	0
399	500742	49.55	0
399	501140	49.555	0
399	501871	49.56	0
399	503045	49.565	0
399	504142	49.57	0
399	505462	49.575	0
399	506267	49.58	0
399	507345	49.585	0
399	508726	49.59	0
399	509583	49.595	0
399	510967	49.6	0
399	512829	49.611263679235	0
399	514202	49.616263679235	0
399	515629	49.625084455592	0
399	516713	49.630084455592	0
399	517343	49.635084455592	0
399	518477	49.640084455592	0
399	518834	49.645084455592	0
399	520750	49.654194354045	0
399	521664	49.659194354045	0
399	522246	49.664194354045	0
399	523153	49.669194354045	0
399	525098	49.681604231087	0
399	525249	49.686604231087	0
399	526294	49.691604231087	0
399	527192	49.696604231087	0
399	528076	49.701604231087	0
399	528535	49.706604231087	0
399	529004	49.718220777931	0
399	530034	49.723220777931	0
399	530885	49.731431608929	0
399	531346	49.736431608929	0
399	533135	49.746705621705	0
399	533711	49.751705621705	0
399	534694	49.7602843554	0
399	535178	49.7652843554	0
399	535994	49.7702843554	0
399	537039	49.775398038597	0
399	537377	49.780398038597	0
399	537731	49.785536050175	0
399	537740	49.790536050175	0
399	540225	49.808007637256	0
399	540725	49.813007637256	0
399	541396	49.818007637256	0
399	541739	49.823363642831	0
399	541740	49.828363642831	0
399	541992	50.505	1
399	542002	50.51	0
399	543238	50.518088680299	22
399	544569	50.523088680299	0
399	545670	50.528088680299	0
399	546569	50.533088680299	0
399	547736	50.538088680299	0
399	548478	50.543088680299	0
399	549535	50.548088680299	0
399	550567	50.553088680299	0
399	551402	50.558088680299	0
399	552475	50.563088680299	0
399	552985	50.568088680299	0
399	554732	50.573088680299	0
399	555706	50.578088680299	0
399	557091	50.583088680299	0
399	557678	50.588088680299	0
399	560192	50.607121223029	0
399	560923	50.612121223029	0
399	561996	50.617121223029	0
399	564635	50.63625605289	0
399	565321	50.64125605289	0
399	566179	50.648445546703	0
399	566871	50.653445546703	0
399	568632	50.663848860606	0
399	569494	50.668848860606	0
399	570159	50.673848860606	0
399	571953	50.686209591976	0
399	573155	50.691209591976	0
399	573902	50.696209591976	0
399	574364	50.701209591976	0
399	575329	50.706561585919	0
399	576250	50.711561585919	0
399	576857	50.716561585919	0
399	577709	50.721561585919	0
399	579018	50.729910630457	0
399	579583	50.734910630457	0
399	580289	50.740019576716	0
399	580521	50.745019576716	0
399	581133	50.750019576716	0
399	581947	50.755019576716	0
399	582929	50.760019576716	0
399	583778	50.765019576716	0
399	583893	50.770019576716	0
399	584995	50.775205276357	0
399	585472	50.780205276357	0
399	585971	50.785205276357	0
399	586428	50.790205276357	0
399	586430	50.795205276357	0
399	586947	50.803863882983	0
399	587445	50.808863882983	0
399	587784	50.813863882983	0
399	587899	50.818863882983	0
399	588884	50.836656650175	0
399	588888	50.841656650175	0
399	589470	50.848096679026	0
399	589813	50.853096679026	0
399	590061	51.505	1
399	590071	51.51	0
399	592221	51.517985806286	37
399	593726	51.522985806286	0
399	595171	51.527985806286	0
399	596441	51.532985806286	0
399	598318	51.541838904226	0
399	599299	51.546838904226	0
399	600151	51.551838904226	0
399	602051	51.55769798173	0
399	603228	51.56269798173	0
399	604560	51.56769798173	0
399	605532	51.57269798173	0
399	607884	51.584427398448	0
399	608774	51.589427398448	0
399	609897	51.594427398448	0
399	610762	51.599427398448	0
399	611737	51.604427398448	0
399	612265	51.609427398448	0
399	613224	51.614427398448	0
399	614086	51.619427398448	0
399	615424	51.624427398448	0
399	616394	51.629427398448	0
399	617365	51.635121764386	0
399	618131	51.640121764386	0
399	619928	51.648856879006	0
399	620801	51.653856879006	0
399	621894	51.659805503077	0
399	623287	51.664805503077	0
399	624210	51.669805503077	0
399	625332	51.676803425059	0
399	626511	51.681803425059	0
399	630026	51.698361513379	0
399	630505	51.703361513379	0
399	631265	51.708361513379	0
399	632182	51.713361513379	0
399	633203	51.718361513379	0
399	634413	51.723361513379	0
399	635306	51.728361513379	0
399	636020	51.733361513379	0
399	636709	51.738361513379	0
399	637786	51.743361513379	0
399	638356	51.748361513379	0
399	638857	51.753361513379	0
399	640681	51.763636863213	0
399	641755	51.768636863213	0
399	643340	51.775360840734	0
399	643470	51.780360840734	0
399	645374	51.791305715038	0
399	646092	51.796305715038	0
399	646669	51.801305715038	0
399	647820	51.807350222419	0
399	648586	51.812350222419	0
399	649572	51.817350222419	0
399	650745	51.822350222419	0
399	651487	51.827350222419	0
399	652361	51.832350222419	0
399	653053	51.837350222419	0
399	653664	51.842350222419	0
399	654876	51.847350222419	0
399	655890	51.854102667657	0
399	656756	51.859102667657	0
399	657249	51.864102667657	0
399	657361	51.869102667657	0
399	658720	51.877059451424	0
399	658721	51.882059451424	0
399	659198	51.891387448724	0
399	659696	51.896387448724	0
399	659697	51.901387448724	0
399	660199	51.912827826453	0
399	660200	51.917827826453	0
399	660668	51.93591547478	0
399	660669	51.94091547478	0
399	661144	51.963619494162	0
399	661145	51.968619494162	0
399	661967	52.505	57
399	664045	52.51	0
399	666809	52.515	0
399	669285	52.52	0
399	671366	52.525	0
399	672367	52.53	0
399	673774	52.535	0
399	674977	52.54	0
399	677462	52.549157093022	0
399	679479	52.554157093022	0
399	680482	52.559157093022	0
399	681994	52.564157093022	0
399	684081	52.571874545699	0
399	685396	52.576874545699	0
399	687033	52.582733780823	0
399	688674	52.587733780823	0
399	693785	52.605358898428	0
399	695410	52.610358898428	0
399	696596	52.615358898428	0
399	699778	52.628186369924	0
399	701219	52.633186369924	0
399	702758	52.638186369924	0
399	704374	52.643186369924	0
399	705682	52.648186369924	0
399	707067	52.653237062672	0
399	708367	52.658237062672	0
399	709803	52.663237062672	0
399	711061	52.668237062672	0
399	712618	52.673237062672	0
399	714101	52.678237062672	0
399	715784	52.683237062672	0
399	717402	52.688237062672	0
399	719213	52.696089234033	0
399	719980	52.701089234033	0
399	721695	52.709433442753	0
399	723031	52.714433442753	0
399	726154	52.726961652248	0
399	727730	52.731961652248	0
399	729056	52.736961652248	0
399	730351	52.741961652248	0
399	731675	52.746961652248	0
399	732927	52.751961652248	0
399	734867	52.759746701579	0
399	735944	52.764746701579	0
399	738599	52.773707278849	0
399	739476	52.778707278849	0
399	740439	52.783707278849	0
399	742018	52.788707278849	0
399	743436	52.793707278849	0
399	744405	52.798707278849	0
399	746417	52.806868121343	0
399	747214	52.811868121343	0
399	748418	52.816868121343	0
399	749770	52.821868121343	0
399	750971	52.826868121343	0
399	752550	52.831868121343	0
399	753640	52.836868121343	0
399	754900	52.841868121343	0
399	756122	52.846868121343	0
399	757566	52.851868121343	0
399	758272	52.856868121343	0
399	759515	52.862132738715	0
399	760630	52.867132738715	0
399	761349	52.872132738715	0
399	763940	52.883214243485	0
399	764946	52.888214243485	0
399	765828	52.893214243485	0
399	767356	52.898214243485	0
399	768801	52.903214243485	0
399	769541	52.908214243485	0
399	770849	52.913214243485	0
399	771767	52.918214243485	0
399	772517	52.923214243485	0
399	773499	52.928214243485	0
399	775549	52.936813292805	0
399	776811	52.941813292805	0
399	777996	52.946813292805	0
399	778880	52.953395715383	0
399	779858	52.958395715383	0
399	781141	52.963395715383	0
399	781649	52.968395715383	0
399	782292	52.973395715383	0
399	782986	52.978395715383	0
399	783947	52.983649261497	0
399	784546	52.988649261497	0
399	785811	52.99648525955	0
399	787004	53.00148525955	0
399	788247	53.00648525955	0
399	789485	53.01148525955	0
399	789847	53.01648525955	0
399	791419	53.026156294729	0
399	791913	53.031156294729	0
399	793500	53.04021439465	0
399	794009	53.04521439465	0
399	795454	53.05021439465	0
399	796333	53.05521439465	0
399	796678	53.06021439465	0
399	798307	53.0843412911	0
399	798308	53.0893412911	0
399	798874	53.125650221951	0
399	798875	53.130650221951	0
399	799385	53.148436763009	0
399	799386	53.153436763009	0
399	799393	53.505	1
399	799506	53.51	0
399	801007	53.516604362208	24
399	801871	53.521604362208	0
399	803416	53.526604362208	0
399	804560	53.531604362208	0
399	805189	53.536604362208	0
399	806385	53.541604362208	0
399	806986	53.546604362208	0
399	808232	53.553493372092	0
399	809260	53.558493372092	0
399	810268	53.563493372092	0
399	811390	53.568493372092	0
399	812148	53.573493372092	0
399	814146	53.580281516178	0
399	815058	53.585281516178	0
399	816878	53.598250671933	0
399	818063	53.603250671933	0
399	819708	53.613810530647	0
399	820580	53.618810530647	0
399	821997	53.625719455765	0
399	823303	53.630719455765	0
399	824381	53.635719455765	0
399	825214	53.640719455765	0
399	826294	53.645719455765	0
399	827269	53.650719455765	0
399	828225	53.655719455765	0
399	829090	53.66127510826	0
399	829688	53.66627510826	0
399	830848	53.67127510826	0
399	831798	53.67627510826	0
399	832790	53.68127510826	0
399	833485	53.68627510826	0
399	834830	53.697452169275	0
399	835821	53.702452169275	0
399	836791	53.707452169275	0
399	838481	53.720098133133	0
399	839431	53.725098133133	0
399	840302	53.730098133133	0
399	841270	53.735098133133	0
399	842257	53.740098133133	0
399	842887	53.745098133133	0
399	843732	53.750098133133	0
399	844465	53.755098133133	0
399	845443	53.760098133133	0
399	846411	53.765098133133	0
399	846525	53.770098133133	0
399	847436	53.775098133133	0
399	848192	53.780537532017	0
399	848835	53.785537532017	0