version 2
run AODVScenario_1f-52-20121119-11:25:42-3588
attr configname AODVScenario_1f
attr datetime 20121119-11:25:42
attr experiment AODVScenario_1f
attr inifile AODV.ini
attr iterationvars $numNodes=102
attr iterationvars2 "$numNodes=102, $repetition=0"
attr measurement $numNodes=102
attr network csma802154net
attr numNodes 102
attr processid 3588
attr repetition 0
attr replication #0
attr resultdir results
attr runnumber 52
attr seedset 52

vector 419  csma802154net.dataCentricNetworkMan  RREQPacketFrequency  ETV
vector 420  csma802154net.dataCentricNetworkMan  RERRPacketFrequency  ETV
vector 421  csma802154net.dataCentricNetworkMan  DiscoveryPacketFrequency  ETV
vector 422  csma802154net.dataCentricNetworkMan  RegisterPacketFrequency  ETV
vector 423  csma802154net.dataCentricNetworkMan  RReplyPacketFrequency  ETV
vector 424  csma802154net.dataCentricNetworkMan  AODVDataPacketFrequency  ETV
vector 431  csma802154net.dataCentricNetworkMan  pendingRegistrationVector  ETV
vector 430  csma802154net.dataCentricNetworkMan  pendingRREQVector  ETV
vector 428  csma802154net.dataCentricNetworkMan  PendingDataPacketsVector  ETV
vector 437  csma802154net.fixhost[5].udpApp  "End-to-end delay"  ETV
vector 416  csma802154net.dataCentricNetworkMan  dataPacketE2EDelay  ETV
vector 439  csma802154net.fixhost[7].udpApp  "End-to-end delay"  ETV
vector 434  csma802154net.fixhost[2].udpApp  "End-to-end delay"  ETV
vector 446  csma802154net.fixhost[14].udpApp  "End-to-end delay"  ETV
vector 441  csma802154net.fixhost[9].udpApp  "End-to-end delay"  ETV
vector 447  csma802154net.fixhost[15].udpApp  "End-to-end delay"  ETV
vector 443  csma802154net.fixhost[11].udpApp  "End-to-end delay"  ETV
vector 435  csma802154net.fixhost[3].udpApp  "End-to-end delay"  ETV
vector 456  csma802154net.fixhost[24].udpApp  "End-to-end delay"  ETV
416	1062690	70.016276057944	0.016276057944
416	1064274	70.029276105025	0.029276105025
416	1064779	70.038356047447	0.038356047447
416	1067964	71.035116093227	0.035116093227
416	1069046	71.046212060891	0.046212060891
416	1070293	72.008676017867	0.008676017867
416	1072607	73.024916065391	0.024916065391
416	1073133	73.027084052531	0.027084052531
416	1074150	73.066756098018	0.066756098018
416	1201130	670.014996057945	0.014996057945
416	1201677	670.018692047447	0.018692047447
416	1203263	670.033684105025	0.033684105025
416	1206178	671.024916060891	0.024916060891
416	1207478	671.050404093227	0.050404093227
416	1208747	672.007396017867	0.007396017867
416	1211054	673.01531606539	0.01531606539
416	1211583	673.018516052531	0.018516052531
416	1212603	673.028924098017	0.028924098017
416	1339577	1270.016276057946	0.016276057946
416	1340122	1270.019156047448	0.019156047448
416	1341708	1270.033684105027	0.033684105027
416	1344631	1271.020076093227	0.020076093227
416	1345174	1271.026692060891	0.026692060891
416	1346421	1272.009316017867	0.009316017867
416	1348735	1273.016276065391	0.016276065391
416	1349260	1273.018764052531	0.018764052531
416	1350277	1273.025156098018	0.025156098018
416	1477362	1870.016276047447	0.016276047447
416	1477899	1870.019084057945	0.019084057945
416	1479484	1870.032404105026	0.032404105026
416	1482401	1871.018156093225	0.018156093225
416	1483743	1871.04500406089	0.04500406089
416	1484990	1872.008356017866	0.008356017866
416	1487297	1873.015956065391	0.015956065391
416	1487826	1873.019476052531	0.019476052531
416	1488847	1873.031164098018	0.031164098018
416	1615831	2470.020756047448	0.020756047448
416	1616369	2470.026124057946	0.026124057946
416	1617953	2470.039124105026	0.039124105026
416	1620330	2471.016276060891	0.016276060891
416	1621393	2471.026724093227	0.026724093227
416	1622662	2472.008356017867	0.008356017867
416	1624990	2473.01691605253	0.01691605253
416	1625488	2473.02004406539	0.02004406539
416	1626519	2473.031484098017	0.031484098017
416	1753716	3070.017236047448	0.017236047448
416	1754259	3070.041484057946	0.041484057946
416	1755843	3070.054164105026	0.054164105026
416	1758765	3071.020396093226	0.020396093226
416	1759304	3071.02260406089	0.02260406089
416	1760551	3072.008356017867	0.008356017867
416	1763095	3073.016596052531	0.016596052531
416	1763598	3073.041804065391	0.041804065391
416	1764628	3073.051004098018	0.051004098018
416	1891707	3670.014996057946	0.014996057946
416	1892253	3670.018444047448	0.018444047448
416	1893839	3670.034644105027	0.034644105027
416	1896753	3671.019156060891	0.019156060891
416	1897274	3671.021676093227	0.021676093227
416	1898543	3672.008356017867	0.008356017867
416	1900869	3673.014356052531	0.014356052531
416	1902125	3673.040524065391	0.040524065391
416	1903155	3673.049084098017	0.049084098017
416	2030131	4270.014996057945	0.014996057945
416	2030673	4270.017236047448	0.017236047448
416	2033029	4270.057292105025	0.057292105025
416	2035618	4271.01915606089	0.01915606089
416	2036685	4271.047524093225	0.047524093225
416	2037954	4272.009636017866	0.009636017866
416	2040265	4273.015956065391	0.015956065391
416	2041311	4273.02228405253	0.02228405253
416	2041809	4273.024836098017	0.024836098017
416	2168792	4870.017876047448	0.017876047448
416	2169330	4870.023884057946	0.023884057946
416	2170915	4870.038484105027	0.038484105027
416	2173834	4871.021004060891	0.021004060891
416	2174354	4871.023596093227	0.023596093227
416	2175623	4872.008676017867	0.008676017867
416	2177934	4873.017236065391	0.017236065391
416	2178969	4873.025156098018	0.025156098018
416	2179515	4873.029572052531	0.029572052531
416	2306563	5470.016596057945	0.016596057945
416	2308379	5470.032156105025	0.032156105025
416	2308885	5470.057980047447	0.057980047447
416	2311846	5471.021356093227	0.021356093227
416	2312385	5471.023884060891	0.023884060891
416	2313633	5472.010276017867	0.010276017867
416	2315940	5473.015316065391	0.015316065391
416	2316974	5473.023876098018	0.023876098018
416	2317521	5473.027084052531	0.027084052531
416	2444470	6070.016276057946	0.016276057946
416	2445011	6070.018444047448	0.018444047448
416	2446594	6070.030236105027	0.030236105027
416	2449510	6071.02075606089	0.02075606089
416	2450033	6071.023844093225	0.023844093225
416	2451302	6072.008996017865	0.008996017865
416	2453613	6073.01659606539	0.01659606539
416	2454647	6073.024836098017	0.024836098017
416	2455195	6073.03021205253	0.03021205253
416	2582146	6670.017236047448	0.017236047448
416	2582684	6670.021004057946	0.021004057946
416	2584268	6670.034324105027	0.034324105027
416	2586857	6671.018836060889	0.018836060889
416	2587924	6671.046564093226	0.046564093226
416	2589193	6672.008036017867	0.008036017867
416	2591521	6673.015956052531	0.015956052531
416	2592019	6673.020044065391	0.020044065391
416	2593050	6673.031804098018	0.031804098018
416	2720130	7270.015636057945	0.015636057945
416	2720675	7270.019724047447	0.019724047447
416	2722261	7270.033684105026	0.033684105026
416	2725406	7271.021996093226	0.021996093226
416	2726484	7271.043084060891	0.043084060891
416	2727731	7272.009316017866	0.009316017866
416	2730045	7273.01627606539	0.01627606539
416	2730570	7273.01876405253	0.01876405253
416	2731582	7273.025156098017	0.025156098017
419	809	1.005	1
419	927	1.01	0
419	2083	1.016212181443	122
419	4136	1.021212181443	80
419	6903	1.026212181443	110
419	9321	1.031212181443	72
419	11616	1.036212181443	92
419	13794	1.041212181443	97
419	15548	1.046212181443	85
419	16727	1.051212181443	77
419	18531	1.056212181443	82
419	19749	1.061212181443	87
419	21134	1.066212181443	82
419	22297	1.071212181443	104
419	23253	1.076212181443	56
419	24906	1.081212181443	94
419	25928	1.086212181443	80
419	26416	1.091212181443	33
419	26813	1.096212181443	36
419	27636	1.101212181443	103
419	28794	1.106212181443	102
419	29855	1.111212181443	105
419	30483	1.116212181443	40
419	31203	1.121212181443	60
419	31550	1.126212181443	50
419	31554	1.131212181443	0
419	32663	1.139287636023	95
419	32782	1.144287636023	0
419	33708	1.149553120819	102
419	34096	1.154553120819	36
419	34763	1.159553120819	72
419	35128	1.164553120819	32
419	35240	1.169553120819	0
419	35622	1.176111043429	57
419	35623	1.181111043429	0
419	35991	1.243490175096	32
419	35992	1.248490175096	0
419	44861	43.505	1
419	44979	43.51	0
419	47189	43.515158686532	54
419	48989	43.520158686532	0
419	50561	43.525158686532	0
419	52370	43.530158686532	0
419	53130	43.535158686532	0
419	54931	43.540158686532	0
419	56200	43.545158686532	0
419	57300	43.550158686532	0
419	58610	43.555158686532	0
419	59497	43.560158686532	0
419	61152	43.565733872261	0
419	62366	43.570733872261	0
419	65746	43.584830447831	0
419	66829	43.589830447831	0
419	68520	43.596157641338	0
419	70101	43.601157641338	0
419	71312	43.606157641338	0
419	72380	43.612595207025	0
419	73234	43.617595207025	0
419	75184	43.626053924507	0
419	76612	43.631053924507	0
419	79402	43.645033414919	0
419	80630	43.650033414919	0
419	81818	43.655033414919	0
419	83273	43.663423451601	0
419	84427	43.668423451601	0
419	86005	43.677082545483	0
419	87317	43.682082545483	0
419	92928	43.706564542843	0
419	94102	43.711564542843	0
419	95271	43.716564542843	0
419	97048	43.722483887316	0
419	98326	43.727483887316	0
419	99546	43.732483887316	0
419	100807	43.737483887316	0
419	101936	43.742483887316	0
419	107699	43.763910672332	0
419	108464	43.768910672332	0
419	109840	43.773910672332	0
419	111088	43.778910672332	0
419	112428	43.783910672332	0
419	113702	43.788910672332	0
419	114685	43.793910672332	0
419	115670	43.798910672332	0
419	116636	43.803910672332	0
419	118109	43.809985722668	0
419	119483	43.814985722668	0
419	120417	43.819985722668	0
419	121033	43.824985722668	0
419	122158	43.829985722668	0
419	123161	43.834985722668	0
419	125406	43.847224228852	0
419	126585	43.852224228852	0
419	126932	43.857224228852	0
419	127746	43.862224228852	0
419	129004	43.867224228852	0
419	130246	43.872224228852	0
419	131154	43.877224228852	0
419	132138	43.882224228852	0
419	132905	43.887224228852	0
419	134045	43.892224228852	0
419	135174	43.897224228852	0
419	135916	43.902224228852	0
419	136655	43.907224228852	0
419	137392	43.912224228852	0
419	138119	43.917224228852	0
419	139001	43.922224228852	0
419	140016	43.927224228852	0
419	140905	43.932224228852	0
419	142499	43.942877893222	0
419	143142	43.947877893222	0
419	143996	43.952877893222	0
419	144928	43.957877893222	0
419	145786	43.962877893222	0
419	146948	43.969825363762	0
419	147668	43.974825363762	0
419	148201	43.979825363762	0
419	149086	43.984825363762	0
419	149833	43.989825363762	0
419	150721	43.994825363762	0
419	151242	43.999825363762	0
419	151673	44.004825363762	0
419	152688	44.010130050266	0
419	153205	44.015130050266	0
419	153718	44.020130050266	0
419	153830	44.025130050266	0
419	155094	44.03835775837	0
419	155248	44.04335775837	0
419	155767	44.059279772183	0
419	155879	44.064279772183	0
419	156275	44.070347271459	0
419	156276	44.075347271459	0
419	156283	44.505	1
419	156401	44.51	0
419	158862	44.515512844421	55
419	161115	44.520512844421	0
419	162711	44.525512844421	0
419	164045	44.530689003301	0
419	164609	44.535689003301	0
419	166068	44.540689003301	0
419	167527	44.545689003301	0
419	168900	44.550689003301	0
419	170457	44.555689003301	0
419	172107	44.560689003301	0
419	173344	44.565689003301	0
419	174562	44.570689003301	0
419	176203	44.579096961165	0
419	177438	44.584096961165	0
419	179310	44.590401939682	0
419	180419	44.595401939682	0
419	181964	44.601993787305	0
419	183543	44.606993787305	0
419	184710	44.611993787305	0
419	185861	44.616993787305	0
419	191407	44.642914376318	0
419	192767	44.647914376318	0
419	194021	44.652914376318	0
419	196244	44.661438758053	0
419	197146	44.666438758053	0
419	198844	44.672110780785	0
419	199589	44.677110780785	0
419	203686	44.693897017613	0
419	204698	44.698897017613	0
419	205816	44.703897017613	0
419	206942	44.709625674479	0
419	208005	44.714625674479	0
419	209221	44.719625674479	0
419	212555	44.732233230154	0
419	213410	44.737233230154	0
419	214697	44.742653746912	0
419	215799	44.747653746912	0
419	217127	44.752653746912	0
419	218108	44.757653746912	0
419	219066	44.762653746912	0
419	221500	44.771829811256	0
419	222636	44.776829811256	0
419	223948	44.781829811256	0
419	226885	44.794507732065	0
419	227867	44.799507732065	0
419	228735	44.804507732065	0
419	229973	44.809507732065	0
419	231898	44.817706049523	0
419	232902	44.822706049523	0
419	234501	44.827706049523	0
419	235277	44.832706049523	0
419	238982	44.851391805102	0
419	240042	44.856391805102	0
419	241281	44.861391805102	0
419	242360	44.866391805102	0
419	244400	44.877652729083	0
419	245531	44.882652729083	0
419	246527	44.887652729083	0
419	247414	44.892652729083	0
419	248435	44.897652729083	0
419	249459	44.902652729083	0
419	250717	44.910275178932	0
419	251704	44.915275178932	0
419	252926	44.920275178932	0
419	253422	44.925275178932	0
419	254050	44.930275178932	0
419	255043	44.937255013421	0
419	255864	44.942255013421	0
419	256893	44.948855224831	0
419	258002	44.953855224831	0
419	262031	44.97926694232	0
419	262988	44.98426694232	0
419	263628	44.98926694232	0
419	264652	44.99426694232	0
419	265634	44.99926694232	0
419	266490	45.00426694232	0
419	267037	45.00926694232	0
419	267826	45.01426694232	0
419	268626	45.01926694232	0
419	269261	45.02426694232	0
419	269997	45.02926694232	0
419	270634	45.03426694232	0
419	270750	45.03926694232	0
419	271153	45.045511095404	0
419	271517	45.050511095404	0
419	273832	45.063679810711	0
419	274243	45.068679810711	0
419	274244	45.073679810711	0
419	274251	45.505	1
419	274369	45.51	0
419	275506	45.516288104753	21
419	276790	45.521288104753	0
419	278062	45.526288104753	0
419	279250	45.531288104753	0
419	279838	45.536288104753	0
419	280596	45.541288104753	0
419	281463	45.546288104753	0
419	282663	45.551288104753	0
419	283553	45.556288104753	0
419	284811	45.561288104753	0
419	285814	45.566288104753	0
419	286722	45.571288104753	0
419	287623	45.576288104753	0
419	289025	45.581288104753	0
419	290759	45.590390615919	0
419	291718	45.595390615919	0
419	292625	45.600390615919	0
419	293472	45.605390615919	0
419	295828	45.620944668637	0
419	296923	45.625944668637	0
419	297896	45.630944668637	0
419	298729	45.635944668637	0
419	299328	45.640944668637	0
419	300148	45.645944668637	0
419	300638	45.650944668637	0
419	301162	45.655944668637	0
419	303138	45.677220681813	0
419	303650	45.682220681813	0
419	304894	45.690461692914	0
419	305503	45.695461692914	0
419	306020	45.700685368335	0
419	306394	45.705685368335	0
419	306752	45.710685368335	0
419	307024	45.715685368335	0
419	307917	45.720685368335	0
419	308389	45.725685368335	0
419	308625	45.730685368335	0
419	309645	45.758029719072	0
419	309646	45.763029719072	0
419	310155	45.781671426511	0
419	310156	45.786671426511	0
419	310368	46.505	1
419	310375	46.51	0
419	312072	46.518845881275	20
419	313366	46.523845881275	0
419	314437	46.528845881275	0
419	315211	46.534276922797	0
419	315585	46.539276922797	0
419	316741	46.544276922797	0
419	317615	46.549276922797	0
419	318682	46.554276922797	0
419	319453	46.559276922797	0
419	320912	46.564276922797	0
419	321978	46.569276922797	0
419	323878	46.581188952538	0
419	324617	46.586188952538	0
419	325716	46.591188952538	0
419	326586	46.596188952538	0
419	327601	46.601188952538	0
419	328584	46.606188952538	0
419	329613	46.611188952538	0
419	330459	46.616188952538	0
419	331302	46.621188952538	0
419	332247	46.626188952538	0
419	332997	46.631188952538	0
419	333997	46.636453056092	0
419	334516	46.641453056092	0
419	335460	46.646453056092	0
419	336317	46.651453056092	0
419	337163	46.656453056092	0
419	337883	46.661453056092	0
419	338243	46.666453056092	0
419	338356	46.671453056092	0
419	341267	46.699145129026	0
419	341857	46.704145129026	0
419	342222	46.709145129026	0
419	342952	46.714145129026	0
419	343456	46.719145129026	0
419	343457	46.724145129026	0
419	344590	46.732343917811	0
419	345468	46.737343917811	0
419	345469	46.742343917811	0
419	345995	46.770275175381	0
419	346604	46.775275175381	0
419	346985	46.780275175381	0
419	346986	46.785275175381	0
419	347937	46.819059216919	0
419	348428	46.824059216919	0
419	349131	47.505	46
419	351048	47.51	0
419	353234	47.515	0
419	354393	47.52	0
419	355779	47.525	0
419	357055	47.53	0
419	357956	47.535	0
419	359642	47.543386744916	0
419	360744	47.548386744916	0
419	362228	47.553386744916	0
419	363809	47.558386744916	0
419	368484	47.580814820796	0
419	369678	47.585814820796	0
419	371772	47.594285323073	0
419	372908	47.599285323073	0
419	375657	47.611380856538	0
419	377307	47.616380856538	0
419	378657	47.621380856538	0
419	379761	47.626380856538	0
419	381048	47.634981886745	0
419	382077	47.639981886745	0
419	383673	47.644981886745	0
419	385112	47.649981886745	0
419	385851	47.654981886745	0
419	387233	47.661510940048	0
419	388383	47.666510940048	0
419	389727	47.671510940048	0
419	391057	47.676510940048	0
419	393082	47.68488514799	0
419	393850	47.68988514799	0
419	395459	47.69488514799	0
419	396453	47.69988514799	0
419	397216	47.70488514799	0
419	398655	47.70988514799	0
419	399535	47.716089472617	0
419	400779	47.721089472617	0
419	402069	47.726089472617	0
419	403064	47.731089472617	0
419	404630	47.736089472617	0
419	405128	47.741089472617	0
419	406246	47.746089472617	0
419	407247	47.751089472617	0
419	408497	47.756089472617	0
419	410066	47.761089472617	0
419	410833	47.766089472617	0
419	412179	47.771089472617	0
419	413087	47.776089472617	0
419	415087	47.785178878757	0
419	416366	47.790178878757	0
419	417601	47.795882815214	0
419	418180	47.800882815214	0
419	419184	47.80650733921	0
419	420310	47.81150733921	0
419	421288	47.81650733921	0
419	422664	47.826108261784	0
419	423940	47.831108261784	0
419	425038	47.836108261784	0
419	425649	47.841108261784	0
419	426535	47.846733339693	0
419	427734	47.851733339693	0
419	430983	47.869897390528	0
419	431956	47.874897390528	0
419	433197	47.88082816416	0
419	433447	47.88582816416	0
419	434454	47.89082816416	0
419	434798	47.89582816416	0
419	435559	47.90082816416	0
419	436052	47.90582816416	0
419	437556	47.9126617084	0
419	438471	47.9176617084	0
419	439404	47.92419717874	0
419	440134	47.92919717874	0
419	440663	47.936610245181	0
419	441141	47.941610245181	0
419	441919	47.949528487161	0
419	442736	47.954528487161	0
419	443157	47.959528487161	0
419	443669	47.964528487161	0
419	444199	47.969528487161	0
419	444312	47.974528487161	0
419	444724	47.979528487161	0
419	445770	47.997415941493	0
419	445976	48.002415941493	0
419	446505	48.032247926527	0
419	446506	48.037247926527	0
419	446513	48.505	1
419	446631	48.51	0
419	448777	48.515845530521	44
419	450309	48.520845530521	0
419	451855	48.525845530521	0
419	453700	48.530845530521	0
419	455167	48.535845530521	0
419	456707	48.540845530521	0
419	457946	48.545845530521	0
419	459111	48.550845530521	0
419	460444	48.555845530521	0
419	462152	48.562240573241	0
419	463793	48.567240573241	0
419	464802	48.572240573241	0
419	466084	48.578998610519	0
419	467570	48.583998610519	0
419	468845	48.588998610519	0
419	470593	48.595695890188	0
419	471987	48.600695890188	0
419	472929	48.605695890188	0
419	474003	48.610695890188	0
419	475020	48.615695890188	0
419	477035	48.627372977839	0
419	478022	48.632372977839	0
419	482481	48.654552740237	0
419	483831	48.659552740237	0
419	487417	48.676441960524	0
419	488563	48.681441960524	0
419	489464	48.686441960524	0
419	492955	48.702318254641	0
419	493749	48.707318254641	0
419	494750	48.712318254641	0
419	496040	48.717318254641	0
419	497597	48.722318254641	0
419	498778	48.727318254641	0
419	499633	48.732318254641	0
419	501635	48.742803654842	0
419	502564	48.747803654842	0
419	503495	48.752803654842	0
419	505449	48.761438583309	0
419	506215	48.766438583309	0
419	507154	48.771438583309	0
419	508353	48.776438583309	0
419	510087	48.782883578682	0
419	511509	48.787883578682	0
419	512410	48.792883578682	0
419	513821	48.797883578682	0
419	515029	48.802883578682	0
419	516150	48.807883578682	0
419	516688	48.812883578682	0
419	517443	48.817883578682	0
419	518505	48.822883578682	0
419	518750	48.827883578682	0
419	519654	48.833193679512	0
419	520912	48.838193679512	0
419	521789	48.843193679512	0
419	523134	48.848193679512	0
419	523801	48.853193679512	0
419	524190	48.858193679512	0
419	525190	48.864567332671	0
419	525696	48.869567332671	0
419	529832	48.894800828623	0
419	531125	48.899800828623	0
419	532396	48.90662166564	0
419	532400	48.91162166564	0
419	533042	48.921608810516	0
419	533655	48.926608810516	0
419	534042	48.931608810516	0
419	534568	48.9377259298	0
419	534986	48.9427259298	0
419	535520	48.9477259298	0
419	536280	48.9527259298	0
419	536786	48.9577259298	0
419	536787	48.9627259298	0
419	537427	48.981123496315	0
419	537857	48.986123496315	0
419	538368	48.991123496315	0
419	538734	48.996123496315	0
419	539098	49.001123496315	0
419	539276	49.505	1
419	540097	49.51	36
419	541973	49.515	0
419	543605	49.52	0
419	544825	49.525	0
419	546443	49.532034691169	0
419	547313	49.537034691169	0
419	548620	49.542034691169	0
419	549758	49.547034691169	0
419	551137	49.552034691169	0
419	552046	49.557034691169	0
419	553044	49.562034691169	0
419	553782	49.567034691169	0
419	554607	49.572034691169	0
419	555792	49.577034691169	0
419	557578	49.584754379323	0
419	558930	49.589754379323	0
419	559293	49.594754379323	0
419	561159	49.60189415882	0
419	562180	49.60689415882	0
419	564348	49.616888277135	0
419	565121	49.621888277135	0
419	566318	49.626888277135	0
419	568607	49.64129635175	0
419	569999	49.64629635175	0
419	571134	49.65129635175	0
419	572015	49.65629635175	0
419	573175	49.66129635175	0
419	574175	49.66629635175	0
419	574939	49.67129635175	0
419	578145	49.68456603672	0
419	579144	49.68956603672	0
419	581805	49.704977054323	0
419	582823	49.709977054323	0
419	584406	49.716486769244	0
419	585411	49.721486769244	0
419	586463	49.726486769244	0
419	587328	49.731486769244	0
419	588371	49.736486769244	0
419	589141	49.741486769244	0
419	590202	49.74718573128	0
419	591389	49.75218573128	0
419	592427	49.757270400655	0
419	592957	49.762270400655	0
419	593775	49.767270400655	0
419	595181	49.773022440424	0
419	596207	49.778022440424	0
419	596947	49.783022440424	0
419	597741	49.788022440424	0
419	598492	49.793022440424	0
419	599489	49.798114926288	0
419	600135	49.803114926288	0
419	601136	49.808114926288	0
419	602119	49.813114926288	0
419	602834	49.818114926288	0
419	603812	49.823114926288	0
419	604637	49.828114926288	0
419	604754	49.833114926288	0
419	606036	49.842362934561	0
419	606795	49.847362934561	0
419	607842	49.852362934561	0
419	608724	49.857362934561	0
419	609108	49.862362934561	0
419	609248	49.867362934561	0
419	610366	49.877126782491	0
419	610767	49.882126782491	0
419	611260	49.887126782491	0
419	611261	49.892126782491	0
419	611774	49.906560172083	0
419	611775	49.911560172083	0
419	612048	50.505	1
419	612577	50.51	41
419	614342	50.515	0
419	615935	50.52	0
419	617618	50.525	0
419	620456	50.539169399766	0
419	621613	50.544169399766	0
419	623317	50.549169399766	0
419	624316	50.554169399766	0
419	625719	50.560627859522	0
419	627245	50.565627859522	0
419	628735	50.570627859522	0
419	630652	50.58061651237	0
419	631768	50.58561651237	0
419	638178	50.613427561553	0
419	638985	50.618427561553	0
419	641085	50.625771567923	0
419	642002	50.630771567923	0
419	644157	50.642459875833	0
419	645211	50.647459875833	0
419	646426	50.652459875833	0
419	647662	50.657459875833	0
419	648932	50.665540040675	0
419	649901	50.670540040675	0
419	651610	50.677718979577	0
419	652725	50.682718979577	0
419	654262	50.689298905425	0
419	655493	50.694298905425	0
419	656579	50.699298905425	0
419	659872	50.712274903872	0
419	660897	50.717274903872	0
419	661249	50.722274903872	0
419	662662	50.728500454068	0
419	663891	50.733500454068	0
419	664914	50.738500454068	0
419	665815	50.743500454068	0
419	667549	50.751642411555	0
419	668523	50.756642411555	0
419	669653	50.761642411555	0
419	670553	50.766642411555	0
419	672773	50.776929574283	0
419	673877	50.781929574283	0
419	674887	50.786929574283	0
419	676754	50.797343148623	0
419	677690	50.802343148623	0
419	678944	50.807343148623	0
419	680045	50.812343148623	0
419	681159	50.817343148623	0
419	683273	50.827677024335	0
419	684395	50.832677024335	0
419	684792	50.837677024335	0
419	686902	50.848100425221	0
419	688136	50.853100425221	0
419	689333	50.858100425221	0
419	690083	50.863100425221	0
419	691143	50.868235740838	0
419	692197	50.873235740838	0
419	692922	50.878235740838	0
419	693890	50.883235740838	0
419	695967	50.895305396249	0
419	696583	50.900305396249	0
419	697014	50.905305396249	0
419	698113	50.910305396249	0
419	699140	50.915305396249	0
419	701599	50.935192895737	0
419	701994	50.940192895737	0
419	703494	50.951181967035	0
419	703892	50.956181967035	0
419	703895	50.961181967035	0
419	703901	50.966181967035	0
419	704534	50.971181967035	0
419	705049	50.976181967035	0
419	705586	50.981181967035	0
419	706005	50.986181967035	0
419	706525	50.994018160906	0
419	706526	50.999018160906	0
419	707281	51.505	55
419	709301	51.51	0
419	711654	51.515	0
419	713756	51.52	0
419	715972	51.531032163658	0
419	717026	51.536032163658	0
419	722416	51.557560624843	0
419	723348	51.562560624843	0
419	724296	51.567560624843	0
419	725811	51.572560624843	0
419	731961	51.597677380262	0
419	733481	51.602677380262	0
419	735251	51.611192186125	0
419	736627	51.616192186125	0
419	738010	51.621192186125	0
419	739635	51.626956844774	0
419	741318	51.631956844774	0
419	744242	51.646212053225	0
419	745425	51.651212053225	0
419	746511	51.656212053225	0
419	751804	51.6765177935	0
419	753033	51.6815177935	0
419	754952	51.689650130176	0
419	756302	51.694650130176	0
419	757169	51.699650130176	0
419	759589	51.709639260176	0
419	761022	51.714639260176	0
419	762771	51.719815942145	0
419	764226	51.724815942145	0
419	765625	51.729815942145	0
419	769473	51.744789004118	0
419	770247	51.749789004118	0
419	771411	51.754867923263	0
419	772995	51.759867923263	0
419	774368	51.764867923263	0
419	775517	51.769867923263	0
419	777931	51.778536346304	0
419	779360	51.783536346304	0
419	780286	51.788536346304	0
419	782752	51.7970120838	0
419	784015	51.8020120838	0
419	785215	51.8070120838	0
419	786124	51.8120120838	0
419	787351	51.8170120838	0
419	789579	51.82272974783	0
419	790547	51.82772974783	0
419	792008	51.83272974783	0
419	793885	51.838884846412	0
419	794912	51.843884846412	0
419	796207	51.848884846412	0
419	797617	51.853884846412	0
419	799122	51.858884846412	0
419	800286	51.863884846412	0
419	804580	51.881732361052	0
419	805882	51.886732361052	0
419	806984	51.891732361052	0
419	808032	51.896955533359	0
419	808706	51.901955533359	0
419	809505	51.907079018964	0
419	810539	51.912079018964	0
419	811703	51.917079018964	0
419	813040	51.922079018964	0
419	814959	51.931551477378	0
419	815637	51.936551477378	0
419	817216	51.942693663901	0
419	818683	51.947693663901	0
419	820885	51.963738688818	0
419	821295	51.968738688818	0
419	821969	51.973738688818	0
419	823291	51.97949380738	0
419	824181	51.98449380738	0
419	825205	51.98949380738	0
419	825875	51.99449380738	0
419	827861	52.006603546001	0
419	828760	52.011603546001	0
419	828984	52.016603546001	0
419	829892	52.021813567962	0
419	830421	52.026813567962	0
419	832583	52.036907605347	0
419	833249	52.041907605347	0
419	833971	52.046907605347	0
419	834630	52.051907605347	0
419	835841	52.063854466448	0
419	836390	52.068854466448	0
419	836393	52.073854466448	0
419	836926	52.082671583116	0
419	837473	52.087671583116	0
419	837474	52.092671583116	0
419	838020	52.106066557	0
419	838021	52.111066557	0
419	838048	52.505	1
419	838058	52.51	0
419	839232	52.517426063086	19
419	840861	52.522426063086	0
419	841477	52.527426063086	0
419	842724	52.532426063086	0
419	843708	52.537426063086	0
419	844775	52.542426063086	0
419	845606	52.547426063086	0
419	846612	52.552426063086	0
419	847473	52.557426063086	0
419	848124	52.562426063086	0
419	849426	52.568344688108	0
419	850413	52.573344688108	0
419	850907	52.578344688108	0
419	851516	52.583344688108	0
419	852761	52.588344688108	0
419	853627	52.593344688108	0
419	855005	52.598344688108	0
419	855750	52.603344688108	0
419	856494	52.608344688108	0
419	857480	52.613344688108	0
419	858461	52.618344688108	0
419	859631	52.623871803073	0
419	860368	52.628871803073	0
419	860881	52.633871803073	0
419	861960	52.642178084443	0
419	862456	52.647178084443	0
419	863342	52.652178084443	0
419	864614	52.657178084443	0
419	865363	52.662570303472	0
419	865745	52.667570303472	0
419	866699	52.672570303472	0
419	866813	52.677570303472	0
419	868424	52.69133581796	0
419	869171	52.69633581796	0
419	869675	52.70133581796	0
419	870438	52.707132091858	0
419	871042	52.712132091858	0
419	871184	52.717132091858	0
419	871429	52.727441739305	0
419	871543	52.732441739305	0
419	871916	52.737441739305	0
419	871917	52.742441739305	0
419	873052	52.755235967494	0
419	873468	52.760235967494	0
419	874079	52.771161119123	0
419	874474	52.776161119123	0
419	874475	52.781161119123	0
419	874849	53.505	1
419	875778	53.51	31
419	877373	53.515	0
419	878697	53.52	0
419	879953	53.525	0
419	880973	53.53	0
419	882127	53.535	0
419	883296	53.54	0
419	884758	53.545	0
419	886248	53.55	0
419	887150	53.555	0
419	888352	53.56	0
419	890952	53.573767851789	0
419	891842	53.578767851789	0
419	893112	53.586770980068	0
419	894261	53.591770980068	0
419	895126	53.596770980068	0
419	896125	53.601770980068	0
419	898177	53.612911002725	0
419	899058	53.617911002725	0
419	900073	53.622911002725	0
419	901066	53.627911002725	0
419	902296	53.632911002725	0
419	903157	53.637911002725	0
419	904645	53.6463691471	0
419	905409	53.6513691471	0
419	906418	53.6563691471	0
419	907330	53.6613691471	0
419	908431	53.6663691471	0
419	909315	53.6713691471	0
419	911308	53.682131580992	0
419	912107	53.687131580992	0
419	913030	53.692131580992	0
419	915162	53.705821034856	0
419	915651	53.710821034856	0
419	916677	53.716319006548	0
419	917562	53.721319006548	0
419	918540	53.726319006548	0
419	919305	53.731319006548	0
419	920456	53.736319006548	0
419	921226	53.741319006548	0
419	921962	53.746319006548	0
419	922954	53.75252815125	0
419	923185	53.75752815125	0
419	923811	53.763287766403	0
419	924804	53.768287766403	0
419	925776	53.778797301329	0
419	925777	53.783797301329	0
419	926302	53.793431549813	0
419	927066	53.798431549813	0
419	927808	53.803431549813	0
419	928641	53.811737166154	0