file 228360 1353340742                                          
version 2
run AODVScenario_1f-3-20121119-15:58:48-2392
attr configname AODVScenario_1f
attr datetime 20121119-15:58:48
attr experiment AODVScenario_1f
attr inifile AODV.ini
attr iterationvars $numNodes=53
attr iterationvars2 "$numNodes=53, $repetition=0"
attr measurement $numNodes=53
attr network csma802154net
attr numNodes 53
attr processid 2392
attr repetition 0
attr replication #0
attr resultdir results
attr runnumber 3
attr seedset 3

vector 223  csma802154net.dataCentricNetworkMan  RREQPacketFrequency  ETV
vector 224  csma802154net.dataCentricNetworkMan  RERRPacketFrequency  ETV
vector 225  csma802154net.dataCentricNetworkMan  DiscoveryPacketFrequency  ETV
vector 226  csma802154net.dataCentricNetworkMan  RegisterPacketFrequency  ETV
vector 227  csma802154net.dataCentricNetworkMan  RReplyPacketFrequency  ETV
vector 228  csma802154net.dataCentricNetworkMan  AODVDataPacketFrequency  ETV
vector 235  csma802154net.dataCentricNetworkMan  pendingRegistrationVector  ETV
vector 234  csma802154net.dataCentricNetworkMan  pendingRREQVector  ETV
vector 232  csma802154net.dataCentricNetworkMan  PendingDataPacketsVector  ETV
vector 247  csma802154net.fixhost[11].udpApp  "End-to-end delay"  ETV
vector 220  csma802154net.dataCentricNetworkMan  dataPacketE2EDelay  ETV
vector 249  csma802154net.fixhost[13].udpApp  "End-to-end delay"  ETV
vector 255  csma802154net.fixhost[19].udpApp  "End-to-end delay"  ETV
vector 244  csma802154net.fixhost[8].udpApp  "End-to-end delay"  ETV
vector 252  csma802154net.fixhost[16].udpApp  "End-to-end delay"  ETV
vector 250  csma802154net.fixhost[14].udpApp  "End-to-end delay"  ETV
vector 251  csma802154net.fixhost[15].udpApp  "End-to-end delay"  ETV
vector 245  csma802154net.fixhost[9].udpApp  "End-to-end delay"  ETV
vector 262  csma802154net.fixhost[26].udpApp  "End-to-end delay"  ETV
vector 240  csma802154net.fixhost[4].udpApp  "End-to-end delay"  ETV
vector 239  csma802154net.fixhost[3].udpApp  "End-to-end delay"  ETV
vector 242  csma802154net.fixhost[6].udpApp  "End-to-end delay"  ETV
220	2081 7006 341759 1277639 70.01087603765 7273.045764129472 156 0.010236052481 0.163164138192 6.105590902338 0.31217523617245
223	9087 32972 485 1277796 1.005 7273.05501 1183 0 56 721 21869
224	42059 32946 485 1277796 1.005 7273.05501 1183 0 0 0 0
225	75005 32946 485 1277796 1.005 7273.05501 1183 0 0 0 0
226	107951 32946 485 1277796 1.005 7273.05501 1183 0 1 12 12
227	140897 32958 485 1277796 1.005 7273.05501 1183 0 70 1128 29636
228	173855 32963 485 1277796 1.005 7273.05501 1183 0 60 1142 24016
232	206818 12619 340879 1277639 70 7273.045764129472 416 0 3 520 1040
234	219437 1338 12304 329911 43.50001 54.767264561732 48 0 1 13 13
235	220775 579 12299 326239 43.5 54.725494026091 24 0 1 12 12
239	221354 586 352134 1276441 73.057172145846 7273.032756101966 13 0.032756101966 0.057172145846 0.536421588828 0.02266107187959
240	221940 586 351521 1277639 73.044836152999 7273.045764129472 13 0.041604129473 0.076732129472 0.747237758472 0.044850703455992
242	222526 586 352727 1277333 73.072884183659 7273.042916160132 13 0.042916160132 0.163164138192 0.952190156549 0.080985678384202
244	223112 576 344409 1268634 71.030884074484 7271.01979604523 13 0.01531604523 0.030884074484 0.265324734256 0.0056591140396329
245	223688 586 347516 1271725 72.034972065115 7272.022316065115 13 0.019436065116 0.052180065115 0.372268846503 0.012166839088945
247	224274 580 341759 1266982 70.01087603765 7270.016316037651 13 0.01087603765 0.049700037649 0.254980489458 0.0069331587362532
249	224854 580 342054 1266696 70.03544405248 7270.012476052481 13 0.010236052481 0.039284052481 0.239124682248 0.0053480413067572
250	225434 586 344994 1269758 71.041724094272 7271.054812077195 13 0.023204077196 0.054812077195 0.494733088922 0.02050531263204
251	226020 586 347232 1272840 72.032796101588 7272.054804101587 13 0.028636101588 0.056692072858 0.548189291906 0.024415277480526
252	226606 586 344702 1270043 71.033116112438 7271.059852112438 13 0.031124112436 0.088652112436 0.620965461685 0.034273652806992
255	227192 582 342320 1267268 70.04052408144 7270.018444081441 13 0.014996081441 0.042764081441 0.325501058727 0.00928845322587
262	227774 586 348378 1273433 72.062444134215 7272.063332134214 13 0.040364134215 0.083812134214 0.748653744784 0.045087933135647
