file 208912 1353340812                                          
version 2
run AODVScenario_1f-7-20121119-15:59:57-520
attr configname AODVScenario_1f
attr datetime 20121119-15:59:57
attr experiment AODVScenario_1f
attr inifile AODV.ini
attr iterationvars $numNodes=57
attr iterationvars2 "$numNodes=57, $repetition=0"
attr measurement $numNodes=57
attr network csma802154net
attr numNodes 57
attr processid 520
attr repetition 0
attr replication #0
attr resultdir results
attr runnumber 7
attr seedset 7

vector 239  csma802154net.dataCentricNetworkMan  RREQPacketFrequency  ETV
vector 240  csma802154net.dataCentricNetworkMan  RERRPacketFrequency  ETV
vector 241  csma802154net.dataCentricNetworkMan  DiscoveryPacketFrequency  ETV
vector 242  csma802154net.dataCentricNetworkMan  RegisterPacketFrequency  ETV
vector 243  csma802154net.dataCentricNetworkMan  RReplyPacketFrequency  ETV
vector 244  csma802154net.dataCentricNetworkMan  AODVDataPacketFrequency  ETV
vector 251  csma802154net.dataCentricNetworkMan  pendingRegistrationVector  ETV
vector 250  csma802154net.dataCentricNetworkMan  pendingRREQVector  ETV
vector 248  csma802154net.dataCentricNetworkMan  PendingDataPacketsVector  ETV
vector 262  csma802154net.fixhost[10].udpApp  "End-to-end delay"  ETV
vector 236  csma802154net.dataCentricNetworkMan  dataPacketE2EDelay  ETV
vector 263  csma802154net.fixhost[11].udpApp  "End-to-end delay"  ETV
vector 266  csma802154net.fixhost[14].udpApp  "End-to-end delay"  ETV
vector 259  csma802154net.fixhost[7].udpApp  "End-to-end delay"  ETV
vector 264  csma802154net.fixhost[12].udpApp  "End-to-end delay"  ETV
vector 257  csma802154net.fixhost[5].udpApp  "End-to-end delay"  ETV
vector 258  csma802154net.fixhost[6].udpApp  "End-to-end delay"  ETV
vector 261  csma802154net.fixhost[9].udpApp  "End-to-end delay"  ETV
vector 253  csma802154net.fixhost[1].udpApp  "End-to-end delay"  ETV
vector 260  csma802154net.fixhost[8].udpApp  "End-to-end delay"  ETV
vector 265  csma802154net.fixhost[13].udpApp  "End-to-end delay"  ETV
236	2007 6418 341695 1321407 70.011236021409 7273.092980163815 143 0.00739602141 0.105668195883 4.868674310399 0.2252744054814
239	8425 30094 449 1321545 1.005 7273.100300125584 1085 0 54 872 29564
240	38519 30065 449 1321545 1.005 7273.100300125584 1085 0 0 0 0
241	68584 30065 449 1321545 1.005 7273.100300125584 1085 0 0 0 0
242	98649 30065 449 1321545 1.005 7273.100300125584 1085 0 1 12 12
243	128714 30077 449 1321545 1.005 7273.100300125584 1085 0 65 1049 24227
244	158791 30080 449 1321545 1.005 7273.100300125584 1085 0 59 1008 19096
248	188871 11820 341177 1321407 70 7273.092980163815 390 0 3 455 871
250	200691 1252 15246 330371 43.50001 54.538300683446 45 0 1 16 16
251	201943 551 15241 337842 43.5 54.628521966115 23 0 2 24 36
253	202494 586 350146 1319060 73.040756156998 7273.026756093443 13 0.024836093441 0.043956156999 0.428549659934 0.014704435094026
257	203080 586 346327 1315660 72.024236072683 7272.022956072684 13 0.019436072683 0.026404072684 0.295476944886 0.0068018646005573
258	203666 586 347253 1316404 72.057332101865 7272.030204101866 13 0.027644101866 0.057332101865 0.494589324252 0.020439814635098
259	204252 586 343973 1314025 71.018196051807 7271.024204051807 13 0.016276051807 0.044612051807 0.298196673488 0.0078873137931921
260	204838 574 351047 1320168 73.047756187899 7273.061772124052 13 0.041956218659 0.06525215612 0.71695818438 0.040482795654599
261	205412 586 347559 1317009 72.062412131857 7272.058572131857 13 0.036564131856 0.075532131857 0.653245714133 0.034980477117047
262	205998 578 341695 1311151 70.011236021409 7270.007716021411 13 0.00739602141 0.011236021409 0.110548278337 0.00095473774177742
263	206576 578 342303 1311760 70.020436065909 7270.016916065911 13 0.015956065911 0.02484406591 0.252436856835 0.0050102062843364
264	207154 586 344585 1313725 71.029284081232 7271.022316081231 13 0.020716081232 0.045284081232 0.355701056007 0.010175467916068
265	207740 586 351669 1321407 73.064316227954 7273.092980163815 13 0.051092195882 0.105668195883 0.969254642987 0.076257048051959
266	208326 586 342613 1312068 70.026444075011 7270.019724075013 13 0.015636075012 0.042764075013 0.29371697516 0.0075802445927367
