file 255137 1353025214                                          
version 2
run AODVScenario_1f-62-20121116-00:19:31-2900
attr configname AODVScenario_1f
attr datetime 20121116-00:19:31
attr experiment AODVScenario_1f
attr inifile AODV.ini
attr iterationvars $numNodes=112
attr iterationvars2 "$numNodes=112, $repetition=0"
attr measurement $numNodes=112
attr network csma802154net
attr numNodes 112
attr processid 2900
attr repetition 0
attr replication #0
attr resultdir results
attr runnumber 62
attr seedset 62

vector 459  csma802154net.dataCentricNetworkMan  RREQPacketFrequency  ETV
vector 460  csma802154net.dataCentricNetworkMan  RERRPacketFrequency  ETV
vector 461  csma802154net.dataCentricNetworkMan  DiscoveryPacketFrequency  ETV
vector 462  csma802154net.dataCentricNetworkMan  RegisterPacketFrequency  ETV
vector 463  csma802154net.dataCentricNetworkMan  RReplyPacketFrequency  ETV
vector 464  csma802154net.dataCentricNetworkMan  AODVDataPacketFrequency  ETV
vector 471  csma802154net.dataCentricNetworkMan  pendingRegistrationVector  ETV
vector 470  csma802154net.dataCentricNetworkMan  pendingRREQVector  ETV
vector 468  csma802154net.dataCentricNetworkMan  PendingDataPacketsVector  ETV
vector 477  csma802154net.fixhost[5].udpApp  "End-to-end delay"  ETV
vector 456  csma802154net.dataCentricNetworkMan  dataPacketE2EDelay  ETV
vector 481  csma802154net.fixhost[9].udpApp  "End-to-end delay"  ETV
vector 494  csma802154net.fixhost[22].udpApp  "End-to-end delay"  ETV
vector 501  csma802154net.fixhost[29].udpApp  "End-to-end delay"  ETV
vector 490  csma802154net.fixhost[18].udpApp  "End-to-end delay"  ETV
vector 474  csma802154net.fixhost[2].udpApp  "End-to-end delay"  ETV
vector 480  csma802154net.fixhost[8].udpApp  "End-to-end delay"  ETV
vector 482  csma802154net.fixhost[10].udpApp  "End-to-end delay"  ETV
vector 478  csma802154net.fixhost[6].udpApp  "End-to-end delay"  ETV
vector 476  csma802154net.fixhost[4].udpApp  "End-to-end delay"  ETV
456	1945 5922 1314743 3137019 70.009316025156 7273.022316092424 130 0.007396021969 0.095316055227 2.693080081655 0.073396395850839
459	7867 38128 889 3137296 1.005 7273.03001 1322 0 138 2949 232279
460	45995 38077 889 3137296 1.005 7273.03001 1322 0 0 0 0
461	84072 38077 889 3137296 1.005 7273.03001 1322 0 0 0 0
462	122149 38077 889 3137296 1.005 7273.03001 1322 0 1 12 12
463	160226 38094 889 3137296 1.005 7273.03001 1322 0 141 1819 102327
464	198320 38096 889 3137296 1.005 7273.03001 1322 0 125 1369 81733
468	236416 11205 1313737 3137019 70 7273.022316092424 364 0 3 390 702
470	247621 1062 49890 1197498 43.50001 54.531321340259 38 0 1 16 16
471	248683 532 49885 1187358 43.5 54.5 22 0 2 29 47
474	249215 595 1321510 3131457 72.010276021969 7272.007716021969 13 0.007396021969 0.015716021969 0.122068285595 0.0012117726113922
476	249810 591 1327910 3135853 73.045572061651 7273.015956061651 13 0.014676061651 0.045572061651 0.266836801459 0.0061939372372993
477	250401 595 1314743 3124432 70.009316025156 7270.007396025156 13 0.007396025156 0.012516025156 0.122708327027 0.0011749555016732
478	250996 595 1326747 3137019 73.020076092424 7273.022316092424 13 0.019756092424 0.047524092424 0.356093201507 0.010820565998688
480	251591 595 1322116 3132064 72.013756043908 7272.013116043908 13 0.011836043908 0.019836043908 0.1817085708 0.002601979684786
481	252186 595 1315323 3125012 70.014076048892 7270.012156048892 13 0.011836048892 0.015996048892 0.182668635594 0.0025846683099806
482	252781 595 1323305 3133253 72.021356079559 7272.023276079559 13 0.020076079557 0.028716079558 0.297469034257 0.0068915745801402
490	253376 595 1320115 3127540 71.095316055227 7271.017876055228 13 0.017876055228 0.095316055227 0.352452717955 0.01465604617794
494	253971 575 1319007 3128928 71.0251240793 7271.028324079301 13 0.019756079301 0.0472040793 0.387629030906 0.012494276086171
501	254546 591 1319569 3130078 71.02924411358 7271.056372113582 13 0.025476113579 0.056372113582 0.423445476555 0.014766619662769
