version 2
run AODVScenario_1f-7-20121119-15:59:57-520
attr configname AODVScenario_1f
attr datetime 20121119-15:59:57
attr experiment AODVScenario_1f
attr inifile AODV.ini
attr iterationvars $numNodes=57
attr iterationvars2 "$numNodes=57, $repetition=0"
attr measurement $numNodes=57
attr network csma802154net
attr numNodes 57
attr processid 520
attr repetition 0
attr replication #0
attr resultdir results
attr runnumber 7
attr seedset 7

vector 239  csma802154net.dataCentricNetworkMan  RREQPacketFrequency  ETV
vector 240  csma802154net.dataCentricNetworkMan  RERRPacketFrequency  ETV
vector 241  csma802154net.dataCentricNetworkMan  DiscoveryPacketFrequency  ETV
vector 242  csma802154net.dataCentricNetworkMan  RegisterPacketFrequency  ETV
vector 243  csma802154net.dataCentricNetworkMan  RReplyPacketFrequency  ETV
vector 244  csma802154net.dataCentricNetworkMan  AODVDataPacketFrequency  ETV
vector 251  csma802154net.dataCentricNetworkMan  pendingRegistrationVector  ETV
vector 250  csma802154net.dataCentricNetworkMan  pendingRREQVector  ETV
vector 248  csma802154net.dataCentricNetworkMan  PendingDataPacketsVector  ETV
vector 262  csma802154net.fixhost[10].udpApp  "End-to-end delay"  ETV
vector 236  csma802154net.dataCentricNetworkMan  dataPacketE2EDelay  ETV
vector 263  csma802154net.fixhost[11].udpApp  "End-to-end delay"  ETV
vector 266  csma802154net.fixhost[14].udpApp  "End-to-end delay"  ETV
vector 259  csma802154net.fixhost[7].udpApp  "End-to-end delay"  ETV
vector 264  csma802154net.fixhost[12].udpApp  "End-to-end delay"  ETV
vector 257  csma802154net.fixhost[5].udpApp  "End-to-end delay"  ETV
vector 258  csma802154net.fixhost[6].udpApp  "End-to-end delay"  ETV
vector 261  csma802154net.fixhost[9].udpApp  "End-to-end delay"  ETV
vector 253  csma802154net.fixhost[1].udpApp  "End-to-end delay"  ETV
vector 260  csma802154net.fixhost[8].udpApp  "End-to-end delay"  ETV
vector 265  csma802154net.fixhost[13].udpApp  "End-to-end delay"  ETV
236	341695	70.011236021409	0.011236021409
236	342303	70.020436065909	0.020436065909
236	342613	70.026444075011	0.026444075011
236	343973	71.018196051807	0.018196051807
236	344585	71.029284081232	0.029284081232
236	346327	72.024236072683	0.024236072683
236	347253	72.057332101865	0.057332101865
236	347559	72.062412131857	0.062412131857
236	350146	73.040756156998	0.040756156998
236	351047	73.047756187899	0.047756187899
236	351669	73.064316227954	0.064316227954
236	422350	670.007716021411	0.007716021411
236	422947	670.015636075012	0.015636075012
236	423249	670.022604065911	0.022604065911
236	424748	671.016276051807	0.016276051807
236	425365	671.045284081232	0.045284081232
236	426987	672.019756072684	0.019756072684
236	427610	672.028604101866	0.028604101866
236	428212	672.042572131857	0.042572131857
236	430331	673.026436093443	0.026436093443
236	431545	673.065252155829	0.065252155829
236	432929	673.105668195883	0.105668195883
236	503297	1270.008356021411	0.008356021411
236	503893	1270.016916075013	0.016916075013
236	504196	1270.02164406591	0.02164406591
236	506000	1271.022316081231	0.022316081231
236	506598	1271.040844051807	0.040844051807
236	508232	1272.025836072684	0.025836072684
236	509294	1272.055804101866	0.055804101866
236	509895	1272.064652131855	0.064652131855
236	512004	1273.027396093443	0.027396093443
236	513215	1273.06020415583	0.06020415583
236	514593	1273.095892195885	0.095892195885
236	585018	1870.00995602141	0.00995602141
236	585615	1870.017876075012	0.017876075012
236	585917	1870.02484406591	0.02484406591
236	587296	1871.017876051807	0.017876051807
236	587908	1871.028964081232	0.028964081232
236	589531	1872.021676072682	0.021676072682
236	590149	1872.029244101865	0.029244101865
236	590750	1872.036564131856	0.036564131856
236	592737	1873.024836093441	0.024836093441
236	594594	1873.048612155828	0.048612155828
236	594891	1873.051092195882	0.051092195882
236	665259	2470.008036021411	0.008036021411
236	665868	2470.017236065911	0.017236065911
236	666177	2470.021324075013	0.021324075013
236	667834	2471.024556081231	0.024556081231
236	668135	2471.026444051806	0.026444051806
236	670372	2472.026404072684	0.026404072684
236	670827	2472.038452101865	0.038452101865
236	671447	2472.055372131857	0.055372131857
236	674031	2473.037236156999	0.037236156999
236	674641	2473.0432761879	0.0432761879
236	675578	2473.056244227954	0.056244227954
236	745946	3070.008036021411	0.008036021411
236	746677	3070.015956065911	0.015956065911
236	746991	3070.039884075013	0.039884075013
236	748645	3071.018196051807	0.018196051807
236	748962	3071.024164081231	0.024164081231
236	750585	3072.021356072684	0.021356072684
236	751203	3072.027644101866	0.027644101866
236	751804	3072.038484131857	0.038484131857
236	754220	3073.029916125221	0.029916125221
236	756065	3073.06525215612	0.06525215612
236	756361	3073.067484196176	0.067484196176
236	827078	3670.00835602141	0.00835602141
236	827687	3670.01723606591	0.01723606591
236	827996	3670.023564075011	0.023564075011
236	829356	3671.016916051806	0.016916051806
236	829968	3671.027364081231	0.027364081231
236	831590	3672.020076072683	0.020076072683
236	832658	3672.055412101866	0.055412101866
236	833259	3672.062980131856	0.062980131856
236	835851	3673.043956156999	0.043956156999
236	836844	3673.054332187899	0.054332187899
236	837543	3673.084332227954	0.084332227954
236	907911	4270.00739602141	0.00739602141
236	908508	4270.016596075012	0.016596075012
236	908810	4270.021324065909	0.021324065909
236	910189	4271.018196051806	0.018196051806
236	910801	4271.027684081229	0.027684081229
236	912425	4272.026156072683	0.026156072683
236	913043	4272.033084101864	0.033084101864
236	913643	4272.040404131855	0.040404131855
236	916858	4273.039796156997	0.039796156997
236	917160	4273.043916186587	0.043916186587
236	917778	4273.051804195882	0.051804195882
236	988146	4870.007716021411	0.007716021411
236	988754	4870.015956065911	0.015956065911
236	989505	4870.042764075013	0.042764075013
236	990865	4871.017236051807	0.017236051807
236	991477	4871.026724081232	0.026724081232
236	993099	4872.025836072684	0.025836072684
236	993717	4872.032836101866	0.032836101866
236	994317	4872.041364131857	0.041364131857
236	996902	4873.039156156999	0.039156156999
236	998163	4873.059196227955	0.059196227955
236	998454	4873.0636121879	0.0636121879
236	1068882	5470.00931602141	0.00931602141
236	1069479	5470.018196075011	0.018196075011
236	1069781	5470.02196406591	0.02196406591
236	1071160	5471.016916051807	0.016916051807
236	1071772	5471.027684081231	0.027684081231
236	1073394	5472.019436072683	0.019436072683
236	1074013	5472.028284101865	0.028284101865
236	1074614	5472.036884131855	0.036884131855
236	1077506	5473.038476189068	0.038476189068
236	1077808	5473.041956218659	0.041956218659
236	1079185	5473.076012227953	0.076012227953
236	1149553	6070.007716021411	0.007716021411
236	1150161	6070.015956065911	0.015956065911
236	1150464	6070.017876075013	0.017876075013
236	1152124	6071.022284051807	0.022284051807
236	1152440	6071.028644081232	0.028644081232
236	1154183	6072.019756072684	0.019756072684
236	1154931	6072.047484101866	0.047484101866
236	1155536	6072.075532131857	0.075532131857
236	1157587	6073.026116093441	0.026116093441
236	1158693	6073.060172124049	0.060172124049
236	1159932	6073.092660163811	0.092660163811
236	1230300	6670.008996021411	0.008996021411
236	1230896	6670.016916075013	0.016916075013
236	1231199	6670.020364065911	0.020364065911
236	1233003	6671.020716081232	0.020716081232
236	1233605	6671.044612051807	0.044612051807
236	1235240	6672.021996072684	0.021996072684
236	1235863	6672.030204101866	0.030204101866
236	1236463	6672.037452131857	0.037452131857
236	1238572	6673.027716093442	0.027716093442
236	1239787	6673.060844155828	0.060844155828
236	1240726	6673.071572195883	0.071572195883
236	1311151	7270.007716021411	0.007716021411
236	1311760	7270.016916065911	0.016916065911
236	1312068	7270.019724075013	0.019724075013
236	1313725	7271.022316081231	0.022316081231
236	1314025	7271.024204051807	0.024204051807
236	1315660	7272.022956072684	0.022956072684
236	1316404	7272.030204101866	0.030204101866
236	1317009	7272.058572131857	0.058572131857
236	1319060	7273.026756093443	0.026756093443
236	1320168	7273.061772124052	0.061772124052
236	1321407	7273.092980163815	0.092980163815
239	449	1.005	1
239	459	1.01	0
239	712	1.017852808156	18
239	1345	1.022852808156	51
239	1998	1.027852808156	38
239	2970	1.032852808156	54
239	3938	1.037852808156	37
239	4805	1.042852808156	30
239	5658	1.047852808156	32
239	6348	1.052852808156	40
239	6893	1.057852808156	37
239	7401	1.062852808156	45
239	7811	1.067852808156	48
239	8059	1.072852808156	12
239	8511	1.077852808156	45
239	9039	1.082852808156	45
239	9312	1.087852808156	13
239	9761	1.092852808156	32
239	9840	1.097852808156	0
239	10093	1.104057573167	17
239	10094	1.109057573167	0
239	10292	1.15612905782	16
239	10293	1.16112905782	0
239	15256	43.505	1
239	15682	43.51	20
239	16665	43.515	0
239	17139	43.52	0
239	17768	43.525	0
239	18126	43.53	0
239	18568	43.535	0
239	19135	43.54	0
239	19492	43.545	0
239	20027	43.55	0
239	20303	43.555	0
239	20716	43.56	0
239	21063	43.565	0
239	23233	43.587550132604	0
239	23512	43.592550132604	0
239	24012	43.597550132604	0
239	26412	43.632040002195	0
239	26737	43.637040002195	0
239	28610	43.664501584768	0
239	29010	43.669501584768	0
239	29785	43.677941571392	0
239	30057	43.682941571392	0
239	30692	43.692568909189	0
239	31025	43.697568909189	0
239	31557	43.702568909189	0
239	32137	43.707568909189	0
239	33086	43.716822915282	0
239	33418	43.721822915282	0
239	33824	43.728728869022	0
239	34308	43.733728869022	0
239	35128	43.74162941418	0
239	35602	43.74662941418	0
239	36278	43.753878093534	0
239	36351	43.758878093534	0
239	37993	43.782204779645	0
239	38140	43.787204779645	0
239	38141	43.792204779645	0
239	38839	43.806846067141	0
239	38907	43.811846067141	0
239	39401	43.816846067141	0
239	39410	43.821846067141	0
239	39882	43.828770934119	0
239	40149	43.833770934119	0
239	40758	43.843527713741	0
239	40826	43.848527713741	0
239	41031	43.854440931562	0
239	41033	43.859440931562	0
239	41317	43.868532803971	0
239	41318	43.873532803971	0
239	41440	44.505	1
239	41513	44.51	0
239	42621	44.515621594234	30
239	43547	44.520621594234	0
239	44363	44.525621594234	0
239	44996	44.530621594234	0
239	45395	44.535621594234	0
239	46050	44.540621594234	0
239	46700	44.545621594234	0
239	47411	44.550621594234	0
239	48232	44.555621594234	0
239	49477	44.566018873116	0
239	50037	44.571018873116	0
239	51201	44.580094954624	0
239	51678	44.585094954624	0
239	53989	44.603572174985	0
239	54482	44.608572174985	0
239	56584	44.629738930664	0
239	57415	44.634738930664	0
239	58278	44.639738930664	0
239	58877	44.644738930664	0
239	59515	44.649738930664	0
239	60274	44.657322899045	0
239	60770	44.662322899045	0
239	61207	44.667322899045	0
239	62412	44.678039976335	0
239	62974	44.683039976335	0
239	63470	44.688039976335	0
239	64031	44.694474962851	0
239	64673	44.699474962851	0
239	65169	44.704474962851	0
239	65773	44.709474962851	0
239	66354	44.714474962851	0
239	67011	44.719474962851	0
239	67689	44.728134111357	0
239	68054	44.733134111357	0
239	68489	44.738134111357	0
239	69256	44.743134111357	0
239	69808	44.748134111357	0
239	70457	44.753134111357	0
239	70822	44.758134111357	0
239	71513	44.763134111357	0
239	71930	44.768134111357	0
239	72425	44.773134111357	0
239	72871	44.778134111357	0
239	73939	44.791625872162	0
239	74246	44.796625872162	0
239	74920	44.801625872162	0
239	75560	44.806625872162	0
239	75910	44.811625872162	0
239	76414	44.816687984301	0
239	76577	44.821687984301	0
239	76906	44.826687984301	0
239	77369	44.832379929763	0
239	77517	44.837379929763	0
239	78957	44.862163773911	0
239	79176	44.867163773911	0
239	79595	44.872774482838	0
239	79924	44.877774482838	0
239	80353	44.887229948167	0
239	80843	44.892229948167	0
239	81476	44.906862380221	0
239	81685	44.911862380221	0
239	82042	44.923029961889	0
239	82325	44.928029961889	0
239	82532	44.933029961889	0
239	82726	45.505	1
239	83336	45.51	17
239	83973	45.515	0
239	84461	45.52	0
239	85098	45.525475149132	0
239	85458	45.530475149132	0
239	86031	45.535475149132	0
239	86522	45.540475149132	0
239	86978	45.545475149132	0
239	87496	45.550475149132	0
239	87847	45.555475149132	0
239	88203	45.560475149132	0
239	88902	45.565475149132	0
239	89290	45.570475149132	0
239	89761	45.575475149132	0
239	90268	45.580475149132	0
239	90632	45.585475149132	0
239	90911	45.590475149132	0
239	91538	45.595808248675	0
239	91891	45.600808248675	0
239	92243	45.605808248675	0
239	92503	45.610808248675	0
239	93355	45.63032431598	0
239	93707	45.63532431598	0
239	93978	45.64032431598	0
239	94393	45.64601000007	0
239	94749	45.65101000007	0
239	94969	45.65601000007	0
239	95113	45.66101000007	0
239	95338	45.666237214347	0
239	95339	45.671237214347	0
239	95626	45.692635538523	0
239	95627	45.697635538523	0
239	95895	45.706454166621	0
239	95896	45.711454166621	0
239	96024	46.505	1
239	96372	46.51	29
239	97391	46.515	0
239	98302	46.52	0
239	99607	46.529252228279	0
239	100037	46.534252228279	0
239	100493	46.539252228279	0
239	101386	46.544252228279	0
239	101905	46.549252228279	0
239	103478	46.564067343331	0
239	104183	46.569067343331	0
239	104795	46.575175708375	0
239	105385	46.580175708375	0
239	105822	46.585175708375	0
239	106602	46.59141090384	0
239	107076	46.59641090384	0
239	107438	46.60141090384	0
239	108195	46.606853773949	0
239	108642	46.611853773949	0
239	109412	46.617597797231	0
239	109711	46.622597797231	0
239	110619	46.628636480535	0
239	111109	46.633636480535	0
239	112311	46.645391875622	0
239	112541	46.650391875622	0
239	113265	46.655787710299	0
239	113877	46.660787710299	0
239	114648	46.668481137774	0
239	115373	46.673481137774	0
239	116113	46.678755838379	0
239	116637	46.683755838379	0
239	117282	46.688755838379	0
239	117938	46.694138401924	0
239	118423	46.699138401924	0
239	119202	46.705546966081	0
239	119786	46.710546966081	0
239	120370	46.715546966081	0
239	120739	46.720546966081	0
239	121496	46.728704861497	0
239	122250	46.733704861497	0
239	122747	46.738704861497	0
239	123394	46.743704861497	0
239	123956	46.748704861497	0
239	124362	46.753704861497	0
239	125497	46.76459491858	0
239	125981	46.76959491858	0
239	126400	46.77459491858	0
239	126909	46.77959491858	0
239	126982	46.78459491858	0
239	127564	46.790511902873	0
239	128008	46.795511902873	0
239	128368	46.800511902873	0
239	128565	46.805511902873	0
239	129221	46.811087718603	0
239	129623	46.816087718603	0
239	129624	46.821087718603	0
239	129931	46.82982778918	0
239	130209	46.83482778918	0
239	130495	46.83982778918	0
239	131010	46.853251340336	0
239	131383	46.858251340336	0
239	131672	46.863251340336	0
239	131962	46.868251340336	0
239	131966	46.873251340336	0
239	132311	46.92205938378	0
239	132525	46.92705938378	0
239	132719	47.505	1
239	133290	47.51	19
239	134212	47.515	0
239	134783	47.52	0
239	135300	47.525	0
239	135926	47.53	0
239	136350	47.535	0
239	136903	47.54	0
239	137424	47.545	0
239	138061	47.55	0
239	139056	47.55670970768	0
239	139439	47.56170970768	0
239	139772	47.56670970768	0
239	140728	47.577562881851	0
239	141171	47.582562881851	0
239	141737	47.587562881851	0
239	142005	47.592562881851	0
239	142521	47.597872082331	0
239	142946	47.602872082331	0
239	143375	47.607872082331	0
239	144352	47.617905054026	0
239	144875	47.622905054026	0
239	145362	47.627905054026	0
239	145936	47.633945070466	0
239	146515	47.638945070466	0
239	146935	47.643945070466	0
239	147861	47.653049071589	0
239	148228	47.658049071589	0
239	148623	47.664379474493	0
239	148985	47.669379474493	0
239	150080	47.680538020347	0
239	150577	47.685538020347	0
239	151150	47.690538020347	0
239	152074	47.710706907657	0
239	152360	47.715706907657	0
239	153315	47.740381761619	0
239	153615	47.745381761619	0
239	153761	47.750381761619	0
239	154407	47.756381768492	0
239	154474	47.761381768492	0
239	154999	47.771210295328	0
239	155000	47.776210295328	0
239	155361	47.781494066287	0
239	155724	47.786494066287	0
239	156026	47.791494066287	0
239	156102	47.796494066287	0
239	156320	47.801494066287	0
239	156609	47.806494066287	0
239	156888	47.825960098087	0
239	156889	47.830960098087	0
239	157243	47.8458110188	0
239	157459	47.8508110188	0
239	157460	47.8558110188	0
239	157588	48.505	1
239	157877	48.51	24
239	158914	48.515	0
239	159931	48.52	0
239	160571	48.525	0
239	161496	48.530495537283	0
239	161667	48.535495537283	0
239	162286	48.540495537283	0
239	163514	48.549030062287	0
239	164226	48.554030062287	0
239	164676	48.559030062287	0
239	165457	48.564030062287	0
239	166483	48.572290890753	0
239	167067	48.577290890753	0
239	167644	48.582290890753	0
239	168303	48.587290890753	0
239	169434	48.596683539386	0
239	170147	48.601683539386	0
239	170629	48.606683539386	0
239	170994	48.611683539386	0
239	171650	48.618074979395	0
239	172461	48.623074979395	0
239	173067	48.628074979395	0
239	173638	48.633074979395	0
239	174168	48.638074979395	0
239	174588	48.643074979395	0
239	175273	48.648074979395	0
239	175773	48.653074979395	0
239	176386	48.658074979395	0
239	177140	48.665200884063	0
239	177660	48.670200884063	0
239	178077	48.675200884063	0
239	178804	48.681204381716	0
239	179185	48.686204381716	0
239	180026	48.691204381716	0
239	180308	48.696204381716	0
239	181285	48.704534091936	0
239	181804	48.709534091936	0
239	182384	48.714534091936	0
239	182951	48.719534091936	0
239	183549	48.724534091936	0
239	183837	48.729534091936	0
239	184182	48.734534091936	0
239	184393	48.739534091936	0
239	185456	48.756943980439	0
239	185951	48.761943980439	0
239	186513	48.776615253009	0
239	186822	48.781615253009	0
239	187118	48.786615253009	0
239	187252	48.791615253009	0
239	188265	48.820273817082	0
239	188269	48.825273817082	0
239	188569	48.843911784332	0
239	188780	48.848911784332	0
239	188862	48.853911784332	0
239	189076	49.505	1
239	190064	49.51	32
239	191255	49.515	0
239	192134	49.52	0
239	193010	49.525	0
239	193514	49.53	0
239	193997	49.535	0
239	194752	49.540619452213	0
239	195536	49.545619452213	0
239	196126	49.550619452213	0
239	196960	49.555619452213	0
239	197563	49.560619452213	0
239	198372	49.565619452213	0
239	199145	49.570619452213	0
239	199995	49.575619452213	0
239	200621	49.580619452213	0
239	201641	49.587483694244	0
239	202183	49.592483694244	0
239	204760	49.614360477186	0
239	205212	49.619360477186	0
239	206048	49.624360477186	0
239	206620	49.629360477186	0
239	208978	49.647921852435	0
239	209605	49.652921852435	0
239	211348	49.667900533762	0
239	211927	49.672900533762	0
239	212317	49.677900533762	0
239	213053	49.682900533762	0
239	213864	49.687900533762	0
239	214667	49.692900533762	0
239	214968	49.697900533762	0
239	215677	49.702900533762	0
239	216451	49.707900533762	0
239	217301	49.712900533762	0
239	217998	49.717900533762	0
239	218498	49.722900533762	0
239	219395	49.731763016719	0
239	219999	49.736763016719	0
239	221151	49.748467685586	0
239	221580	49.753467685586	0
239	222024	49.758467685586	0
239	222703	49.763467685586	0
239	223281	49.768467685586	0
239	223687	49.773467685586	0
239	224297	49.778878492764	0
239	224987	49.783878492764	0
239	225414	49.788878492764	0
239	226348	49.793878492764	0
239	226780	49.798878492764	0
239	228792	49.821025909008	0
239	229527	49.826025909008	0
239	230169	49.831025909008	0
239	230404	49.836025909008	0
239	230475	49.841025909008	0
239	230788	49.846457814689	0
239	231213	49.851457814689	0
239	231761	49.856457814689	0
239	232215	49.861457814689	0
239	232371	49.866457814689	0
239	232960	49.903428506692	0
239	232961	49.908428506692	0
239	233277	49.917628364108	0
239	233278	49.922628364108	0
239	233589	49.943411037585	0
239	233590	49.948411037585	0
239	233970	49.981544524779	0
239	234211	49.986544524779	0
239	234212	49.991544524779	0
239	234373	50.505	1
239	234858	50.51	22
239	235984	50.515	0
239	236799	50.52	0
239	237277	50.525	0
239	237954	50.53	0
239	238412	50.535	0
239	239076	50.54	0
239	239915	50.545	0
239	240303	50.55	0
239	240795	50.555	0
239	241163	50.56	0
239	242034	50.565	0
239	242551	50.57	0
239	242904	50.575	0
239	243481	50.58	0
239	244063	50.585	0
239	244650	50.59	0
239	245274	50.595827251869	0
239	245800	50.600827251869	0
239	246783	50.608691349205	0
239	247071	50.613691349205	0
239	247865	50.623299004341	0
239	248432	50.628299004341	0
239	249247	50.634867529175	0
239	249866	50.639867529175	0
239	250675	50.644867529175	0
239	251184	50.649867529175	0
239	252445	50.663057604003	0
239	252735	50.668057604003	0
239	254313	50.689839764316	0
239	254765	50.694839764316	0
239	255859	50.712623494786	0
239	256345	50.717623494786	0
239	256564	50.722623494786	0
239	257069	50.729445612537	0
239	257070	50.734445612537	0
239	258001	50.748311566662	0
239	258437	50.753311566662	0
239	258517	50.758311566662	0
239	258731	50.763311566662	0
239	259221	50.768311566662	0
239	259714	50.775257620498	0
239	260217	50.780257620498	0
239	260519	50.785257620498	0
239	261114	50.793537632314	0
239	261182	50.798537632314	0
239	261697	50.809800402738	0
239	261698	50.814800402738	0
239	261837	51.505	1
239	261910	51.51	0
239	262741	51.516480027297	21
239	263645	51.521480027297	0
239	264276	51.526480027297	0
239	265087	51.531480027297	0
239	265873	51.536480027297	0
239	266481	51.541480027297	0
239	267073	51.546480027297	0
239	267898	51.551480027297	0
239	268459	51.556480027297	0
239	268913	51.561480027297	0
239	269651	51.566480027297	0
239	269961	51.571480027297	0
239	272195	51.592906310461	0
239	272365	51.597906310461	0
239	272876	51.602906310461	0
239	273340	51.608329336909	0
239	273657	51.613329336909	0
239	277023	51.647287443427	0
239	277874	51.652287443427	0
239	277968	51.657287443427	0
239	279151	51.667887895237	0
239	279548	51.672887895237	0
239	280100	51.677887895237	0
239	280563	51.682887895237	0
239	281149	51.687887895237	0
239	281659	51.692887895237	0
239	281873	51.697887895237	0
239	282316	51.702887895237	0
239	282696	51.707887895237	0
239	283125	51.712887895237	0
239	283131	51.717887895237	0
239	283509	51.722887895237	0
239	283876	51.727887895237	0
239	284173	51.732887895237	0
239	284674	51.737887895237	0
239	284981	51.742887895237	0
239	285607	51.747887895237	0
239	286151	51.752887895237	0
239	286315	51.757887895237	0
239	286915	51.765382667209	0
239	286919	51.770382667209	0
239	287527	51.777762623279	0
239	287966	51.782762623279	0
239	287970	51.787762623279	0
239	288282	51.807980644541	0
239	288431	51.812980644541	0
239	288803	52.505	1
239	289486	52.51	15
239	290325	52.515	0
239	291129	52.52	0
239	291811	52.525	0
239	292318	52.53	0
239	292962	52.535	0
239	293325	52.54	0
239	294008	52.545	0
239	294688	52.55	0
239	295328	52.555	0
239	295933	52.56	0
239	296575	52.565	0
239	297118	52.57	0
239	297880	52.575	0
239	298817	52.58	0
239	299372	52.585	0
239	300119	52.59	0
239	300919	52.595	0
239	301302	52.6	0
239	301685	52.605	0
239	302499	52.610750408663	0
239	302919	52.615750408663	0
239	303392	52.622924024252	0
239	303615	52.627924024252	0
239	304139	52.632924024252	0
239	304656	52.637924024252	0
239	304884	52.642924024252	0
239	305326	52.65501836538	0
239	305395	52.66001836538	0
239	305832	52.665034622256	0
239	306202	52.670034622256	0
239	306727	52.679121014078	0
239	307409	52.684121014078	0
239	307410	52.689121014078	0
239	307561	52.704519100069	0
239	307703	52.709519100069	0
239	307856	52.714519100069	0
239	308896	52.738319145229	0
239	308897	52.743319145229	0
239	309518	52.756719128747	0
239	309739	52.761719128747	0
239	310024	53.505	1
239	310507	53.51	11
239	311247	53.515	0
239	311842	53.52	0
239	312254	53.525	0
239	312647	53.53	0
239	313368	53.535	0
239	314101	53.54	0
239	314398	53.545	0
239	315053	53.550393149356	0
239	315198	53.555393149356	0
239	315735	53.561078884134	0
239	316053	53.566078884134	0
239	316383	53.571078884134	0
239	316817	53.576078884134	0
239	317439	53.581078884134	0
239	318115	53.586078884134	0
239	318615	53.591078884134	0
239	319225	53.597643068134	0
239	319680	53.602643068134	0
239	320313	53.607643068134	0
239	320819	53.612643068134	0
239	321047	53.617643068134	0
239	321144	53.622643068134	0
239	321283	53.627643068134	0
239	321942	53.633523746111	0
239	322511	53.638523746111	0
239	323316	53.643523746111	0
239	323946	53.648523746111	0
239	324530	53.653523746111	0
239	325910	53.683380203135	0
239	326144	53.688380203135	0
239	326460	53.706192296562	0
239	326750	53.711192296562	0
239	327028	53.720686441536	0
239	327029	53.725686441536	0
239	327175	54.505	1
239	327182	54.51	0
239	327864	54.518952065216	9
239	328416	54.523952065216	0
239	328968	54.528952065216	0
239	329624	54.533952065216	0
239	330441	54.538952065216	0
239	330909	54.543952065216	0
239	331302	54.548952065216	0
239	331693	54.553952065216	0
239	332206	54.558952065216	0
239	332556	54.563952065216	0
239	333209	54.568977774242	0
239	333870	54.573977774242	0
239	334394	54.578977774242	0
239	334928	54.583977774242	0
239	335659	54.588977774242	0
239	335875	54.593977774242	0
239	336757	54.614819891368	0
239	336926	54.619819891368	0
239	337684	54.624819891368	0
239	337981	54.629819891368	0
239	338619	54.695537839498	0
239	338937	54.700537839498	0
239	338947	54.705537839498	0
239	339240	54.710537839498	0
239	339241	54.715537839498	0
239	341550	70.00501	0
239	341557	70.01001	0
239	341914	70.016236021409	0
239	342468	70.021236021409	0
239	342535	70.026236021409	0
239	342759	70.031444075011	0
239	342760	70.036444075011	0
239	343202	71.00501	0
239	343510	71.01001	0
239	343811	71.01501	0
239	344133	71.02001	0
239	344279	71.02501	0
239	344730	71.03001	0
239	344734	71.03501	0
239	345006	72.00501	0
239	345443	72.01001	0
239	345764	72.01501	0
239	345831	72.02001	0
239	346493	72.025436057683	0
239	346494	72.030436057683	0
239	347091	72.05412408892	0
239	347404	72.05912408892	0
239	347708	72.06412408892	0
239	347709	72.06912408892	0
239	347984	73.00501	0
239	348144	73.01001	0
239	348780	73.01783603025	0
239	348990	73.02283603025	0
239	349380	73.02783603025	0
239	349678	73.03283603025	0
239	349989	73.03783603025	0
239	350445	73.04283603025	0
239	351048	73.04783603025	0
239	351508	73.05283603025	0
239	351509	73.05783603025	0
239	351810	73.069316227954	0
239	352120	73.074316227954	0
239	422206	670.00501	0
239	422506	670.01001	0
239	422868	670.01501	0
239	423096	670.02001	0
239	423414	670.02501	0
239	423415	670.03001	0
239	423860	671.00501	0
239	424171	671.01001	0
239	424478	671.01501	0
239	424911	671.02001	0
239	424912	671.02501	0
239	425275	671.044564069125	0
239	425513	671.049564069125	0
239	425514	671.054564069125	0
239	425929	672.00501	0
239	426229	672.01001	0
239	426550	672.01501	0
239	427052	672.02001	0
239	427217	672.02501	0
239	427761	672.03012408892	0
239	427971	672.03512408892	0
239	428060	672.04012408892	0
239	428361	672.047572131857	0
239	428362	672.052572131857	0
239	428799	673.00501	0
239	429118	673.01001	0
239	429433	673.01501	0
239	429731	673.02001	0
239	430052	673.02501	0
239	430479	673.03001	0
239	430480	673.03501	0
239	431077	673.055652093806	0
239	431147	673.060652093806	0
239	431748	673.066132141618	0
239	431836	673.071132141618	0
239	432515	673.100828173564	0
239	432930	673.105828173564	0
239	433067	673.110828173564	0
239	503153	1270.00501	0
239	503450	1270.01001	0
239	503749	1270.01501	0
239	504043	1270.02001	0
239	504361	1270.02501	0
239	504362	1270.03001	0
239	504807	1271.00501	0
239	505181	1271.01001	0
239	505627	1271.01501	0
239	505847	1271.02001	0
239	506148	1271.027316081231	0
239	506149	1271.032316081231	0
239	506758	1271.045844051807	0
239	506759	1271.050844051807	0
239	507031	1272.00501	0
239	507319	1272.01001	0
239	507475	1272.01501	0
239	507856	1272.021646042335	0
239	508458	1272.026646042335	0
239	508528	1272.031646042335	0
239	509445	1272.05700408892	0
239	509740	1272.06200408892	0
239	510044	1272.06700408892	0
239	510045	1272.07200408892	0
239	510479	1273.00501	0
239	510798	1273.01001	0
239	511116	1273.01501	0
239	511414	1273.02001	0
239	511853	1273.02501	0
239	512149	1273.03001	0
239	512150	1273.03501	0
239	512750	1273.052844093806	0
239	513061	1273.057844093806	0
239	513505	1273.062844093806	0
239	513506	1273.067844093806	0
239	514433	1273.091692173565	0
239	514730	1273.096692173565	0
239	514731	1273.101692173565	0
239	584800	1870.00501	0
239	585019	1870.01001	0
239	585467	1870.01501	0
239	585761	1870.02001	0
239	585918	1870.02501	0
239	586083	1870.03001	0
239	586525	1871.00501	0
239	586836	1871.01001	0
239	587134	1871.01501	0
239	587456	1871.02001	0
239	587752	1871.02501	0
239	588056	1871.03001	0
239	588057	1871.03501	0
239	588472	1872.00501	0
239	588772	1872.01001	0
239	589087	1872.01501	0
239	589383	1872.02001	0
239	589760	1872.02501	0
239	590303	1872.03001	0
239	590598	1872.03501	0
239	590899	1872.04001	0
239	590900	1872.04501	0
239	591337	1873.00501	0
239	591656	1873.01001	0
239	591974	1873.01501	0
239	592278	1873.02001	0
239	592738	1873.02501	0
239	593246	1873.03001	0
239	593482	1873.03501	0
239	593799	1873.04001	0
239	594179	1873.04501	0
239	594797	1873.05001	0
239	595028	1873.05501	0
239	595029	1873.06001	0
239	665115	2470.00501	0
239	665412	2470.01001	0
239	665711	2470.01501	0
239	666039	2470.02001	0
239	666323	2470.02501	0
239	666324	2470.03001	0
239	666678	2471.00501	0
239	666939	2471.01001	0
239	667144	2471.01501	0
239	667672	2471.020676038211	0
239	668043	2471.025676038211	0
239	668295	2471.030676038211	0
239	668296	2471.035676038211	0
239	668711	2472.00501	0
239	669008	2472.01001	0
239	669329	2472.01501	0
239	669686	2472.02001	0
239	670222	2472.02501	0
239	670668	2472.03001	0
239	670669	2472.03501	0
239	670978	2472.043452101865	0
239	670981	2472.048452101865	0
239	671596	2472.060372131857	0
239	671597	2472.065372131857	0
239	672034	2473.00501	0
239	672350	2473.01001	0
239	672417	2473.01501	0
239	672966	2473.020046046139	0
239	673268	2473.025046046139	0
239	673569	2473.030046046139	0
239	673877	2473.035046046139	0
239	674477	2473.040046046139	0
239	674844	2473.045046046139	0
239	675163	2473.050046046139	0
239	675484	2473.055046046139	0
239	675715	2473.060046046139	0
239	675716	2473.065046046139	0
239	745728	3070.00501	0
239	746102	3070.01001	0
239	746527	3070.01501	0
239	746845	3070.02001	0
239	746846	3070.02501	0
239	747137	3070.044884075013	0
239	747138	3070.049884075013	0
239	747580	3071.00501	0
239	747894	3071.01001	0