file 190682 1353023776                                          
version 2
run AODVScenario_1f-16-20121115-23:55:59-3760
attr configname AODVScenario_1f
attr datetime 20121115-23:55:59
attr experiment AODVScenario_1f
attr inifile AODV.ini
attr iterationvars $numNodes=66
attr iterationvars2 "$numNodes=66, $repetition=0"
attr measurement $numNodes=66
attr network csma802154net
attr numNodes 66
attr processid 3760
attr repetition 0
attr replication #0
attr resultdir results
attr runnumber 16
attr seedset 16

vector 275  csma802154net.dataCentricNetworkMan  RREQPacketFrequency  ETV
vector 276  csma802154net.dataCentricNetworkMan  RERRPacketFrequency  ETV
vector 277  csma802154net.dataCentricNetworkMan  DiscoveryPacketFrequency  ETV
vector 278  csma802154net.dataCentricNetworkMan  RegisterPacketFrequency  ETV
vector 279  csma802154net.dataCentricNetworkMan  RReplyPacketFrequency  ETV
vector 280  csma802154net.dataCentricNetworkMan  AODVDataPacketFrequency  ETV
vector 287  csma802154net.dataCentricNetworkMan  pendingRegistrationVector  ETV
vector 286  csma802154net.dataCentricNetworkMan  pendingRREQVector  ETV
vector 281  csma802154net.dataCentricNetworkMan  AODVDataLineBreakVector  ETV
vector 284  csma802154net.dataCentricNetworkMan  PendingDataPacketsVector  ETV
vector 299  csma802154net.fixhost[11].udpApp  "End-to-end delay"  ETV
vector 272  csma802154net.dataCentricNetworkMan  dataPacketE2EDelay  ETV
vector 303  csma802154net.fixhost[15].udpApp  "End-to-end delay"  ETV
vector 300  csma802154net.fixhost[12].udpApp  "End-to-end delay"  ETV
vector 306  csma802154net.fixhost[18].udpApp  "End-to-end delay"  ETV
vector 311  csma802154net.fixhost[23].udpApp  "End-to-end delay"  ETV
vector 293  csma802154net.fixhost[5].udpApp  "End-to-end delay"  ETV
vector 302  csma802154net.fixhost[14].udpApp  "End-to-end delay"  ETV
vector 308  csma802154net.fixhost[20].udpApp  "End-to-end delay"  ETV
vector 291  csma802154net.fixhost[3].udpApp  "End-to-end delay"  ETV
vector 294  csma802154net.fixhost[6].udpApp  "End-to-end delay"  ETV
272	2023 5844 442604 1523328 70.019156054266 7273.016276048613 130 0.00675601512 0.051332047111 2.63542333453 0.064010746025812
275	7867 27428 521 1523508 1.005 7273.02501 990 0 79 1228 54972
276	35295 27396 521 1523508 1.005 7273.02501 990 0 1 1 1
277	62691 27396 521 1523508 1.005 7273.02501 990 0 0 0 0
278	90087 27396 521 1523508 1.005 7273.02501 990 0 1 12 12
279	117483 27408 521 1523508 1.005 7273.02501 990 0 83 1142 37246
280	144891 27410 521 1523508 1.005 7273.02501 990 0 82 919 29391
281	172301 30 297831 297831 49.794996448078 49.794996448078 1 1 1 1 1
284	172331 11034 441236 1523328 70 7273.016276048613 364 0 3 390 702
286	183365 950 19025 409821 43.50001 54.526059586659 35 0 1 16 16
287	184315 523 19020 406422 43.5 54.5 22 1 2 33 55
291	184838 588 449277 1522965 73.013756031848 7273.011836031848 13 0.010876031847 0.016636031848 0.174988414018 0.0023952830338876
293	185426 564 446647 1520336 72.00675601512 7272.00867601512 13 0.00675601512 0.01123601512 0.109908196559 0.00094506465160546
294	185990 588 449640 1523328 73.019156048613 7273.016276048613 13 0.014676048612 0.021396048613 0.235268631962 0.0043049773219457
299	186578 588 442604 1516330 70.019156054266 7270.018196054266 13 0.017236054267 0.024844054267 0.262676705465 0.0053681355970715
300	187166 588 444227 1517958 71.015356045316 7271.012476045316 13 0.011196045315 0.015356045316 0.168908589102 0.0022186958363392
302	187754 584 447729 1521421 72.020684047111 7272.020684047111 13 0.01563604711 0.051332047111 0.284932612441 0.0073266237908267
303	188338 588 442951 1516682 70.023884065536 7270.041484065539 13 0.016276065539 0.041484065539 0.271388852001 0.0062267423407959
306	188926 586 445380 1519069 71.028076086982 7271.022956086982 13 0.021036086981 0.028076086982 0.318477130752 0.0078791372107437
308	189512 588 448072 1521760 72.028716066522 7272.022956066522 13 0.021036066522 0.047844066521 0.38681286478 0.012707798870727
311	190100 582 445737 1519426 71.029956102882 7271.024836102882 13 0.022916102881 0.051324102881 0.42206133745 0.014638287371869
