file 261511 1351551713                                          
version 2
run AODVScenario_1f-0-20121029-22:56:20-3412
attr configname AODVScenario_1f
attr datetime 20121029-22:56:20
attr experiment AODVScenario_1f
attr inifile AODV.ini
attr iterationvars ""
attr iterationvars2 $repetition=0
attr measurement ""
attr network csma802154net
attr processid 3412
attr repetition 0
attr replication #0
attr resultdir results
attr runnumber 0
attr seedset 0

vector 517  csma802154net.dataCentricNetworkMan  pendingRREQVector  ETV
vector 511  csma802154net.dataCentricNetworkMan  RREQPacketFrequency  ETV
vector 512  csma802154net.dataCentricNetworkMan  DiscoveryPacketFrequency  ETV
vector 513  csma802154net.dataCentricNetworkMan  RegisterPacketFrequency  ETV
vector 514  csma802154net.dataCentricNetworkMan  RReplyPacketFrequency  ETV
vector 515  csma802154net.dataCentricNetworkMan  AODVDataPacketFrequency  ETV
vector 537  csma802154net.fixhost[19].udpApp  "End-to-end delay"  ETV
vector 508  csma802154net.dataCentricNetworkMan  dataPacketE2EDelay  ETV
vector 538  csma802154net.fixhost[20].udpApp  "End-to-end delay"  ETV
vector 527  csma802154net.fixhost[9].udpApp  "End-to-end delay"  ETV
vector 530  csma802154net.fixhost[12].udpApp  "End-to-end delay"  ETV
vector 534  csma802154net.fixhost[16].udpApp  "End-to-end delay"  ETV
vector 519  csma802154net.fixhost[1].udpApp  "End-to-end delay"  ETV
vector 528  csma802154net.fixhost[10].udpApp  "End-to-end delay"  ETV
508	1439 308 4002216 4961609 70.037012032825 80.903124568144 7 0.037012032825 8.903124568144 9.622331443787 79.397925892201
511	1747 51948 10993 5026749 40.005 81.18004582906 1704 0 348 29587 3738887
512	53695 51499 10993 5026749 40.005 81.18004582906 1704 0 0 0 0
513	105194 51499 10993 5026749 40.005 81.18004582906 1704 0 1 12 12
514	156693 51525 10993 5026749 40.005 81.18004582906 1704 0 213 3210 293062
515	208218 51529 10993 5026749 40.005 81.18004582906 1704 0 173 2068 245362
517	259747 1456 10733 4810040 40 80.422999667161 51 1 4 84 168
519	261203 44 4251579 4251579 73.104308063749 73.104308063749 1 0.104308063749 0.104308063749 0.104308063749 0.010880172163065
527	261247 44 4084145 4084145 71.062468043737 71.062468043737 1 0.062468043737 0.062468043737 0.062468043737 0.0039022564883277
528	261291 44 4961609 4961609 80.903124568144 80.903124568144 1 8.903124568144 8.903124568144 8.903124568144 79.265627075889
530	261335 44 4129740 4129740 71.199251786485 71.199251786485 1 0.199251786485 0.199251786485 0.199251786485 0.039701274417464
534	261379 44 4208862 4208862 72.273114889475 72.273114889475 1 0.273114889475 0.273114889475 0.273114889475 0.074591742852941
537	261423 44 4002216 4002216 70.037012032825 70.037012032825 1 0.037012032825 0.037012032825 0.037012032825 0.0013698905738389
538	261467 44 4003745 4003745 70.043052059372 70.043052059372 1 0.043052059372 0.043052059372 0.043052059372 0.0018534798161702
