file 260578 1353498561                                          
version 2
run AODVScenario_1f-36-20121121-11:48:52-1096
attr configname AODVScenario_1f
attr datetime 20121121-11:48:52
attr experiment AODVScenario_1f
attr inifile AODV.ini
attr iterationvars $numNodes=86
attr iterationvars2 "$numNodes=86, $repetition=0"
attr measurement $numNodes=86
attr network csma802154net
attr numNodes 86
attr processid 1096
attr repetition 0
attr replication #0
attr resultdir results
attr runnumber 36
attr seedset 36

vector 355  csma802154net.dataCentricNetworkMan  RREQPacketFrequency  ETV
vector 356  csma802154net.dataCentricNetworkMan  RERRPacketFrequency  ETV
vector 357  csma802154net.dataCentricNetworkMan  DiscoveryPacketFrequency  ETV
vector 358  csma802154net.dataCentricNetworkMan  RegisterPacketFrequency  ETV
vector 359  csma802154net.dataCentricNetworkMan  RReplyPacketFrequency  ETV
vector 360  csma802154net.dataCentricNetworkMan  AODVDataPacketFrequency  ETV
vector 367  csma802154net.dataCentricNetworkMan  pendingRegistrationVector  ETV
vector 366  csma802154net.dataCentricNetworkMan  pendingRREQVector  ETV
vector 364  csma802154net.dataCentricNetworkMan  PendingDataPacketsVector  ETV
vector 381  csma802154net.fixhost[13].udpApp  "End-to-end delay"  ETV
vector 352  csma802154net.dataCentricNetworkMan  dataPacketE2EDelay  ETV
vector 383  csma802154net.fixhost[15].udpApp  "End-to-end delay"  ETV
vector 378  csma802154net.fixhost[10].udpApp  "End-to-end delay"  ETV
vector 380  csma802154net.fixhost[12].udpApp  "End-to-end delay"  ETV
vector 384  csma802154net.fixhost[16].udpApp  "End-to-end delay"  ETV
vector 370  csma802154net.fixhost[2].udpApp  "End-to-end delay"  ETV
vector 371  csma802154net.fixhost[3].udpApp  "End-to-end delay"  ETV
vector 374  csma802154net.fixhost[6].udpApp  "End-to-end delay"  ETV
vector 379  csma802154net.fixhost[11].udpApp  "End-to-end delay"  ETV
vector 375  csma802154net.fixhost[7].udpApp  "End-to-end delay"  ETV
352	1943 5935 871547 2349440 70.017876039765 7273.072004127092 130 0.014036058047 0.073652105669 4.670155301795 0.19838594974806
355	7878 38976 690 2349654 1.005 7273.080044077581 1369 0 120 2243 144395
356	46854 38931 690 2349654 1.005 7273.080044077581 1369 0 0 0 0
357	85785 38931 690 2349654 1.005 7273.080044077581 1369 0 0 0 0
358	124716 38931 690 2349654 1.005 7273.080044077581 1369 0 1 12 12
359	163647 38943 690 2349654 1.005 7273.080044077581 1369 0 98 1619 67395
360	202590 38949 690 2349654 1.005 7273.080044077581 1369 0 98 1387 53101
364	241539 11206 869956 2349440 70 7273.072004127092 364 0 3 390 702
366	252745 1375 34103 865005 43.50001 54.81422568271 49 0 1 18 18
367	254120 523 34098 860010 43.5 54.779267592862 22 1 3 43 95
370	254643 594 878843 2342825 72.028644074984 7272.038492074984 13 0.020716074983 0.038492074984 0.332020974784 0.0088539062560449
371	255237 594 879297 2342376 72.034436098808 7272.027396098809 13 0.022916098807 0.052284098807 0.412605284503 0.014086868305203
374	255831 594 883001 2346327 73.029916086353 7273.031836086351 13 0.027996086353 0.065860086352 0.502677122581 0.021348281582637
375	256425 594 885708 2348983 73.068484120063 7273.068732120063 13 0.036236120063 0.070652120062 0.675677560815 0.037181371159033
378	257019 593 874327 2337865 71.027476058047 7271.014676058045 13 0.014036058047 0.058300058044 0.316828754605 0.010028057341364
379	257612 594 885262 2349440 73.046476127093 7273.072004127092 13 0.041284127091 0.072004127092 0.731285652202 0.04264784880965
380	258206 593 875187 2338727 71.034084083165 7271.026084083163 13 0.022564083165 0.051364083165 0.422861081141 0.01484242407817
381	258799 593 871547 2335082 70.017876039765 7270.016276039765 13 0.016276039765 0.038212039764 0.268684516939 0.0060125511121686
383	259392 593 872399 2335939 70.028644075426 7270.046564075426 13 0.021036075424 0.046884075425 0.395948980532 0.013093672097286
384	259985 593 876043 2339583 71.043892105669 7271.037812105667 13 0.029884105669 0.073652105669 0.611565373693 0.030290969006504
