file 248690 1353498738                                          
version 2
run AODVScenario_1f-42-20121121-11:51:51-492
attr configname AODVScenario_1f
attr datetime 20121121-11:51:51
attr experiment AODVScenario_1f
attr inifile AODV.ini
attr iterationvars $numNodes=92
attr iterationvars2 "$numNodes=92, $repetition=0"
attr measurement $numNodes=92
attr network csma802154net
attr numNodes 92
attr processid 492
attr repetition 0
attr replication #0
attr resultdir results
attr runnumber 42
attr seedset 42

vector 379  csma802154net.dataCentricNetworkMan  RREQPacketFrequency  ETV
vector 380  csma802154net.dataCentricNetworkMan  RERRPacketFrequency  ETV
vector 381  csma802154net.dataCentricNetworkMan  DiscoveryPacketFrequency  ETV
vector 382  csma802154net.dataCentricNetworkMan  RegisterPacketFrequency  ETV
vector 383  csma802154net.dataCentricNetworkMan  RReplyPacketFrequency  ETV
vector 384  csma802154net.dataCentricNetworkMan  AODVDataPacketFrequency  ETV
vector 391  csma802154net.dataCentricNetworkMan  pendingRegistrationVector  ETV
vector 390  csma802154net.dataCentricNetworkMan  pendingRREQVector  ETV
vector 388  csma802154net.dataCentricNetworkMan  PendingDataPacketsVector  ETV
vector 396  csma802154net.fixhost[4].udpApp  "End-to-end delay"  ETV
vector 376  csma802154net.dataCentricNetworkMan  dataPacketE2EDelay  ETV
vector 398  csma802154net.fixhost[6].udpApp  "End-to-end delay"  ETV
vector 413  csma802154net.fixhost[21].udpApp  "End-to-end delay"  ETV
vector 395  csma802154net.fixhost[3].udpApp  "End-to-end delay"  ETV
vector 397  csma802154net.fixhost[5].udpApp  "End-to-end delay"  ETV
vector 399  csma802154net.fixhost[7].udpApp  "End-to-end delay"  ETV
vector 405  csma802154net.fixhost[13].udpApp  "End-to-end delay"  ETV
vector 407  csma802154net.fixhost[15].udpApp  "End-to-end delay"  ETV
vector 406  csma802154net.fixhost[14].udpApp  "End-to-end delay"  ETV
vector 403  csma802154net.fixhost[11].udpApp  "End-to-end delay"  ETV
vector 404  csma802154net.fixhost[12].udpApp  "End-to-end delay"  ETV
376	2011 6515 783568 2357406 70.017276028832 7273.033044116919 143 0.011836028831 0.102844089794 4.637119371039 0.19261966890832
379	8526 36677 729 2357626 1.005 7273.04001 1286 0 119 1816 108064
380	45203 36640 729 2357626 1.005 7273.04001 1286 0 0 0 0
381	81843 36640 729 2357626 1.005 7273.04001 1286 0 0 0 0
382	118483 36640 729 2357626 1.005 7273.04001 1286 0 1 12 12
383	155123 36653 729 2357626 1.005 7273.04001 1286 0 108 1526 57240
384	191776 36655 729 2357626 1.005 7273.04001 1286 0 107 1302 50852
388	228431 11992 782320 2357406 70 7273.033044116919 390 0 3 455 871
390	240423 1198 33296 689786 43.50001 54.553789709391 43 0 1 13 13
391	241621 554 33291 674427 43.5 54.5 23 0 1 12 12
395	242175 593 786716 2345802 71.020756053393 7271.027476053393 13 0.014996053393 0.050300053393 0.315260694108 0.0091505634093182
396	242768 593 783568 2341920 70.017276028832 7270.015036028832 13 0.011836028831 0.017276028832 0.179468374809 0.0025183311966706
397	243361 593 788588 2347248 71.055804088157 7271.036604088157 13 0.025404088157 0.062060088155 0.515029146034 0.022175982854095
398	243954 593 784008 2342359 70.022676043666 7270.019796043667 13 0.015636043666 0.022676043666 0.235268567662 0.0043113237945947
399	244547 593 789579 2347738 71.099212112557 7271.040972112557 13 0.029276112555 0.099212112557 0.59287746323 0.03150415351188
403	245140 593 798265 2356430 73.025156091213 7273.025796091213 13 0.024516091213 0.041332091213 0.365141185766 0.010537777154973
404	245733 593 799238 2357406 73.032084116919 7273.033044116919 13 0.029276116919 0.056084116918 0.482589519943 0.018810762655261
405	246326 593 791852 2351465 72.022036051627 7272.031172051627 13 0.017236051626 0.087348051625 0.374956671146 0.015088232587268
406	246919 593 794750 2350990 72.102844089794 7272.028036089794 13 0.024196089795 0.102844089794 0.526621225766 0.026513214254463
407	247512 593 794273 2352929 72.065292124078 7272.064012124077 13 0.041612124078 0.078412124076 0.757557664846 0.045382117503995
413	248105 585 784454 2342806 70.026476065978 7270.02487606598 13 0.019116065979 0.026476065978 0.292348857729 0.0066272099858007
