file 261973 1353324569                                          
version 2
run AODVScenario_1f-57-20121119-11:28:48-3788
attr configname AODVScenario_1f
attr datetime 20121119-11:28:48
attr experiment AODVScenario_1f
attr inifile AODV.ini
attr iterationvars $numNodes=107
attr iterationvars2 "$numNodes=107, $repetition=0"
attr measurement $numNodes=107
attr network csma802154net
attr numNodes 107
attr processid 3788
attr repetition 0
attr replication #0
attr resultdir results
attr runnumber 57
attr seedset 57

vector 439  csma802154net.dataCentricNetworkMan  RREQPacketFrequency  ETV
vector 440  csma802154net.dataCentricNetworkMan  RERRPacketFrequency  ETV
vector 441  csma802154net.dataCentricNetworkMan  DiscoveryPacketFrequency  ETV
vector 442  csma802154net.dataCentricNetworkMan  RegisterPacketFrequency  ETV
vector 443  csma802154net.dataCentricNetworkMan  RReplyPacketFrequency  ETV
vector 444  csma802154net.dataCentricNetworkMan  AODVDataPacketFrequency  ETV
vector 451  csma802154net.dataCentricNetworkMan  pendingRegistrationVector  ETV
vector 450  csma802154net.dataCentricNetworkMan  pendingRREQVector  ETV
vector 448  csma802154net.dataCentricNetworkMan  PendingDataPacketsVector  ETV
vector 454  csma802154net.fixhost[2].udpApp  "End-to-end delay"  ETV
vector 436  csma802154net.dataCentricNetworkMan  dataPacketE2EDelay  ETV
vector 455  csma802154net.fixhost[3].udpApp  "End-to-end delay"  ETV
vector 456  csma802154net.fixhost[4].udpApp  "End-to-end delay"  ETV
vector 473  csma802154net.fixhost[21].udpApp  "End-to-end delay"  ETV
vector 472  csma802154net.fixhost[20].udpApp  "End-to-end delay"  ETV
vector 478  csma802154net.fixhost[26].udpApp  "End-to-end delay"  ETV
vector 469  csma802154net.fixhost[17].udpApp  "End-to-end delay"  ETV
vector 471  csma802154net.fixhost[19].udpApp  "End-to-end delay"  ETV
vector 480  csma802154net.fixhost[28].udpApp  "End-to-end delay"  ETV
vector 457  csma802154net.fixhost[5].udpApp  "End-to-end delay"  ETV
vector 460  csma802154net.fixhost[8].udpApp  "End-to-end delay"  ETV
436	2017 6511 1242262 2994111 70.042764064205 7273.014396039929 143 0.006756020336 0.081620085597 3.300421527829 0.10631447027887
439	8528 38927 971 2994389 1.005 7273.02001 1354 0 170 2802 247262
440	47455 38879 971 2994389 1.005 7273.02001 1354 0 0 0 0
441	86334 38879 971 2994389 1.005 7273.02001 1354 0 0 0 0
442	125213 38879 971 2994389 1.005 7273.02001 1354 0 1 12 12
443	164092 38895 971 2994389 1.005 7273.02001 1354 0 132 1872 104494
444	202987 38897 971 2994389 1.005 7273.02001 1354 0 131 1399 89401
448	241884 12055 1239521 2994111 70 7273.014396039929 390 0 3 455 871
450	253939 964 44530 1089783 43.50001 54.587626336193 35 0 1 14 14
451	254903 559 44525 1061970 43.5 54.5 23 0 1 12 12
454	255462 595 1242262 2984341 70.042764064205 7270.027724064206 13 0.015636064206 0.045500064206 0.355044834681 0.010905963496048
455	256057 595 1243391 2984903 70.049372085596 7270.030244085599 13 0.019116085598 0.081620085597 0.461757112777 0.019965775386878
456	256652 593 1243932 2983775 70.052284104049 7270.025476104053 13 0.023876104053 0.077812104052 0.519373352676 0.024767944963443
457	257245 595 1253391 2993539 73.009316023524 7273.008996023523 13 0.007396023523 0.010276023523 0.111828305808 0.00097100962922089
460	257840 581 1253963 2994111 73.013756039929 7273.014396039929 13 0.01087603993 0.015676039929 0.168268519084 0.0021982190857407
469	258421 595 1250928 2991075 72.010596020336 7272.008996020336 13 0.006756020336 0.010596020336 0.105108264367 0.00086269760294124
471	259016 595 1251510 2991658 72.014396042097 7272.014076042096 13 0.010556042097 0.014396042097 0.163148547257 0.0020624779439983
472	259611 579 1248425 2987996 71.05289207146 7271.020716071459 13 0.020716071459 0.05289207146 0.366260928973 0.011260444617604
473	260190 595 1247016 2988542 71.025836086695 7271.024804086693 13 0.019436086695 0.029924086694 0.315597127027 0.0078077816489054
478	260785 593 1249555 2989703 71.061132130081 7271.032084130078 13 0.028636130081 0.061132130081 0.513805691042 0.021756044535648
480	261378 595 1252052 2992200 72.019156064934 7272.018836064933 13 0.014676064934 0.019156064934 0.220228844137 0.0037561113684447
