version 2
run AODVScenario_1f-60-20121121-12:02:34-3160
attr configname AODVScenario_1f
attr datetime 20121121-12:02:34
attr experiment AODVScenario_1f
attr inifile AODV.ini
attr iterationvars $numNodes=110
attr iterationvars2 "$numNodes=110, $repetition=0"
attr measurement $numNodes=110
attr network csma802154net
attr numNodes 110
attr processid 3160
attr repetition 0
attr replication #0
attr resultdir results
attr runnumber 60
attr seedset 60

vector 451  csma802154net.dataCentricNetworkMan  RREQPacketFrequency  ETV
vector 452  csma802154net.dataCentricNetworkMan  RERRPacketFrequency  ETV
vector 453  csma802154net.dataCentricNetworkMan  DiscoveryPacketFrequency  ETV
vector 454  csma802154net.dataCentricNetworkMan  RegisterPacketFrequency  ETV
vector 455  csma802154net.dataCentricNetworkMan  RReplyPacketFrequency  ETV
vector 456  csma802154net.dataCentricNetworkMan  AODVDataPacketFrequency  ETV
vector 463  csma802154net.dataCentricNetworkMan  pendingRegistrationVector  ETV
vector 462  csma802154net.dataCentricNetworkMan  pendingRREQVector  ETV
vector 460  csma802154net.dataCentricNetworkMan  PendingDataPacketsVector  ETV
vector 477  csma802154net.fixhost[13].udpApp  "End-to-end delay"  ETV
vector 448  csma802154net.dataCentricNetworkMan  dataPacketE2EDelay  ETV
vector 488  csma802154net.fixhost[24].udpApp  "End-to-end delay"  ETV
vector 482  csma802154net.fixhost[18].udpApp  "End-to-end delay"  ETV
vector 471  csma802154net.fixhost[7].udpApp  "End-to-end delay"  ETV
vector 474  csma802154net.fixhost[10].udpApp  "End-to-end delay"  ETV
vector 475  csma802154net.fixhost[11].udpApp  "End-to-end delay"  ETV
vector 478  csma802154net.fixhost[14].udpApp  "End-to-end delay"  ETV
vector 479  csma802154net.fixhost[15].udpApp  "End-to-end delay"  ETV
vector 467  csma802154net.fixhost[3].udpApp  "End-to-end delay"  ETV
vector 468  csma802154net.fixhost[4].udpApp  "End-to-end delay"  ETV
vector 469  csma802154net.fixhost[5].udpApp  "End-to-end delay"  ETV
448	919042	70.012156026815	0.012156026815
448	919548	70.016276039698	0.016276039698
448	923637	71.032156144391	0.032156144391
448	924318	71.034396126791	0.034396126791
448	925588	71.071660102677	0.071660102677
448	929135	72.02480407616	0.02480407616
448	930190	72.029532082523	0.029532082523
448	930741	72.033084107978	0.033084107978
448	935943	73.032836089035	0.032836089035
448	937319	73.041892128891	0.041892128891
448	938449	73.065252145515	0.065252145515
448	1074715	670.013116026815	0.013116026815
448	1075221	670.017556039698	0.017556039698
448	1078240	671.024876067935	0.024876067935
448	1080121	671.034364102678	0.034364102678
448	1081220	671.063092114617	0.063092114617
448	1084745	672.021036076161	0.021036076161
448	1085287	672.023524082524	0.023524082524
448	1086358	672.036212107979	0.036212107979
448	1090197	673.026436089036	0.026436089036
448	1092414	673.063972145519	0.063972145519
448	1094106	673.080788128892	0.080788128892
448	1230345	1270.013116026816	0.013116026816
448	1230851	1270.018516039698	0.018516039698
448	1233865	1271.020716067935	0.020716067935
448	1235476	1271.031164114617	0.031164114617
448	1237448	1271.064548102677	0.064548102677
448	1240706	1272.021036076161	0.021036076161
448	1243158	1272.074260082523	0.074260082523
448	1244227	1272.081828107977	0.081828107977
448	1248356	1273.028036089036	0.028036089036
448	1250602	1273.040684145519	0.040684145519
448	1251725	1273.052380128893	0.052380128893
448	1388074	1870.014396026815	0.014396026815
448	1388580	1870.019156039698	0.019156039698
448	1392375	1871.027684067934	0.027684067934
448	1393502	1871.038772102676	0.038772102676
448	1394600	1871.056692114617	0.056692114617
448	1398148	1872.027436076161	0.027436076161
448	1398684	1872.028964082524	0.028964082524
448	1399753	1872.036924107978	0.036924107978
448	1405219	1873.037876128892	0.037876128892
448	1407412	1873.061164147891	0.061164147891
448	1409397	1873.089852177907	0.089852177907
448	1545663	2470.012476026816	0.012476026816
448	1546169	2470.017876039699	0.017876039699
448	1549412	2471.020396067935	0.020396067935
448	1551594	2471.050932114617	0.050932114617
448	1552174	2471.054452102678	0.054452102678
448	1555711	2472.026156076159	0.026156076159
448	1556248	2472.028004082523	0.028004082523
448	1557317	2472.034684107978	0.034684107978
448	1561156	2473.026756089036	0.026756089036
448	1564168	2473.070620128893	0.070620128893
448	1565299	2473.099668145519	0.099668145519
448	1701565	3070.012796026816	0.012796026816
448	1702071	3070.017236039699	0.017236039699
448	1705593	3071.024556067935	0.024556067935
448	1707263	3071.036852114617	0.036852114617
448	1707840	3071.039340102678	0.039340102678
448	1710975	3072.022956076159	0.022956076159
448	1712173	3072.054172082522	0.054172082522
448	1713240	3072.060780107977	0.060780107977
448	1718514	3073.034036128893	0.034036128893
448	1720041	3073.063724147891	0.063724147891
448	1721440	3073.074172177908	0.074172177908
448	1858332	3670.015356026815	0.015356026815
448	1858837	3670.018836039698	0.018836039698
448	1862101	3671.021996067935	0.021996067935
448	1864015	3671.033724114616	0.033724114616
448	1864596	3671.039164102677	0.039164102677
448	1868135	3672.021676076161	0.021676076161
448	1868677	3672.024164082524	0.024164082524
448	1869747	3672.033012107978	0.033012107978
448	1874133	3673.028284089035	0.028284089035
448	1875813	3673.038124128891	0.038124128891
448	1878285	3673.087260145517	0.087260145517
448	2014551	4270.012796026816	0.012796026816
448	2015057	4270.017236039698	0.017236039698
448	2018300	4271.023596067934	0.023596067934
448	2020498	4271.053492102676	0.053492102676
448	2021058	4271.058220114615	0.058220114615
448	2024086	4272.021996076161	0.021996076161
448	2025143	4272.027364082522	0.027364082522
448	2026213	4272.035644107977	0.035644107977
448	2030032	4273.028356089034	0.028356089034
448	2032779	4273.060204128887	0.060204128887
448	2033902	4273.066532145512	0.066532145512
448	2170168	4870.012796026816	0.012796026816
448	2170674	4870.016596039699	0.016596039699
448	2174463	4871.021924067933	0.021924067933
448	2175586	4871.029564102678	0.029564102678
448	2177252	4871.052564144391	0.052564144391
448	2180396	4872.023276076161	0.023276076161
448	2181818	4872.051932082524	0.051932082524
448	2182893	4872.081900107979	0.081900107979
448	2186488	4873.025476089036	0.025476089036
448	2189232	4873.040684128893	0.040684128893
448	2190357	4873.047652145519	0.047652145519
448	2326733	5470.012796026816	0.012796026816
448	2327239	5470.018196039699	0.018196039699
448	2330255	5471.019436067935	0.019436067935
448	2332144	5471.028924102677	0.028924102677
448	2333242	5471.056620114615	0.056620114615
448	2336705	5472.029316107978	0.029316107978
448	2337857	5472.038844103704	0.038844103704
448	2338400	5472.045244114913	0.045244114913
448	2343302	5473.035636128893	0.035636128893
448	2345491	5473.058924147892	0.058924147892
448	2346641	5473.067844177909	0.067844177909
448	2482907	6070.014396026816	0.014396026816
448	2483413	6070.019796039699	0.019796039699
448	2487775	6071.027044067935	0.027044067935
448	2488334	6071.033012102677	0.033012102677
448	2489432	6071.054772114617	0.054772114617
448	2493756	6072.028924103705	0.028924103705
448	2494298	6072.032052114913	0.032052114913
448	2494851	6072.053812107978	0.053812107978
448	2500616	6073.031156128893	0.031156128893
448	2501171	6073.033012089034	0.033012089034
448	2502318	6073.040932145519	0.040932145519
448	2638584	6670.015996026815	0.015996026815
448	2639090	6670.020756039698	0.020756039698
448	2642616	6671.020076067935	0.020076067935
448	2644283	6671.030204102678	0.030204102678
448	2644842	6671.034612114617	0.034612114617
448	2648109	6672.021356076161	0.021356076161
448	2649967	6672.045924082523	0.045924082523
448	2651042	6672.076212107978	0.076212107978
448	2655938	6673.032116128891	0.032116128891
448	2658129	6673.05860414789	0.05860414789
448	2659279	6673.069052177907	0.069052177907
448	2795655	7270.015036026816	0.015036026816
448	2796161	7270.019796039699	0.019796039699
448	2799404	7271.022956067934	0.022956067934
448	2801294	7271.049404102677	0.049404102677
448	2802395	7271.079660114616	0.079660114616
448	2805947	7272.021356076161	0.021356076161
448	2807236	7272.026364107979	0.026364107979
448	2808299	7272.050260082524	0.050260082524
448	2812964	7273.028604089036	0.028604089036
448	2814114	7273.035884145518	0.035884145518
448	2815805	7273.049252128892	0.049252128892
451	873	1.005	1
451	883	1.01	0
451	1628	1.017454934474	43
451	2570	1.022454934474	101
451	5033	1.027454934474	134
451	8424	1.032454934474	78
451	11025	1.037454934474	99
451	13933	1.042454934474	67
451	16554	1.047454934474	89
451	18471	1.052454934474	74
451	20222	1.057454934474	94
451	21448	1.062454934474	103
451	23254	1.067454934474	101
451	24802	1.072454934474	102
451	25629	1.077454934474	97
451	26299	1.082454934474	42
451	26747	1.087454934474	44
451	27098	1.092454934474	26
451	27569	1.097454934474	50
451	27693	1.102454934474	0
451	28112	1.107772366701	39
451	28730	1.112772366701	55
451	29711	1.117772366701	86
451	30086	1.122772366701	54
451	30876	1.127772366701	67
451	31869	1.132772366701	109
451	32338	1.137772366701	49
451	32714	1.142772366701	31
451	32715	1.147772366701	0
451	33093	1.15869254089	30
451	33094	1.16369254089	0
451	33908	1.184729074872	48
451	34283	1.189729074872	27
451	34991	1.194729074872	76
451	34992	1.199729074872	0
451	44566	43.505	1
451	45132	43.51	28
451	47220	43.515	0
451	48469	43.52	0
451	48997	43.525	0
451	50048	43.53	0
451	50730	43.535	0
451	51926	43.54	0
451	53319	43.545	0
451	54190	43.55	0
451	55543	43.556711902116	0
451	56529	43.561711902116	0
451	58867	43.579681083782	0
451	60082	43.584681083782	0
451	63391	43.601704326422	0
451	64287	43.606704326422	0
451	65453	43.611704326422	0
451	66217	43.616704326422	0
451	66973	43.621704326422	0
451	68300	43.630055490451	0
451	69441	43.635055490451	0
451	70466	43.640055490451	0
451	72582	43.653322437698	0
451	73136	43.658322437698	0
451	73662	43.663322437698	0
451	74414	43.668322437698	0
451	76079	43.676770242433	0
451	76463	43.681770242433	0
451	76999	43.686944273741	0
451	78013	43.691944273741	0
451	79323	43.696944273741	0
451	80464	43.701944273741	0
451	81261	43.706944273741	0
451	82294	43.714906391002	0
451	82961	43.719906391002	0
451	84104	43.724906391002	0
451	85142	43.729906391002	0
451	86020	43.734906391002	0
451	87694	43.749367571174	0
451	88342	43.754367571174	0
451	88977	43.759367571174	0
451	90024	43.764367571174	0
451	90685	43.769367571174	0
451	91839	43.774367571174	0
451	92852	43.779367571174	0
451	93221	43.784367571174	0
451	94334	43.791714811039	0
451	95234	43.796714811039	0
451	96796	43.81066905459	0
451	97286	43.81566905459	0
451	98348	43.831706269118	0
451	98852	43.836706269118	0
451	98853	43.841706269118	0
451	99890	43.850050275858	0
451	100420	43.855050275858	0
451	100421	43.860050275858	0
451	100649	44.505	1
451	100775	44.51	0
451	101952	44.516737326425	18
451	103202	44.521737326425	0
451	104339	44.526737326425	0
451	105095	44.531737326425	0
451	105756	44.536737326425	0
451	106407	44.541737326425	0
451	107152	44.546737326425	0
451	108042	44.551737326425	0
451	108906	44.556737326425	0
451	109652	44.561737326425	0
451	110628	44.566737326425	0
451	111875	44.576044161396	0
451	112400	44.581044161396	0
451	112772	44.586044161396	0
451	113398	44.591044161396	0
451	114045	44.596044161396	0
451	115095	44.6035625762	0
451	116100	44.6085625762	0
451	116761	44.6135625762	0
451	117401	44.6185625762	0
451	118014	44.6235625762	0
451	118902	44.629308705808	0
451	119523	44.634308705808	0
451	120042	44.640959326114	0
451	120417	44.645959326114	0
451	120418	44.650959326114	0
451	121038	44.664419491034	0
451	121415	44.669419491034	0
451	121416	44.674419491034	0
451	122406	44.718620617593	0
451	122409	44.723620617593	0
451	123409	44.741204636738	0
451	124130	44.746204636738	0
451	124506	44.751204636738	0
451	124631	44.756204636738	0
451	125630	44.802948736331	0
451	126135	44.807948736331	0
451	126624	44.812948736331	0
451	126625	44.817948736331	0
451	126859	45.505	1
451	127268	45.51	22
451	128670	45.515	0
451	130079	45.52	0
451	130994	45.525	0
451	132286	45.53	0
451	132779	45.535	0
451	133793	45.540199898661	0
451	134797	45.545199898661	0
451	135702	45.550199898661	0
451	136464	45.555199898661	0
451	137628	45.560199898661	0
451	138410	45.565199898661	0
451	139438	45.570199898661	0
451	140547	45.575199898661	0
451	141557	45.580199898661	0
451	142300	45.585199898661	0
451	143163	45.590199898661	0
451	144038	45.595199898661	0
451	145313	45.602266778267	0
451	145950	45.607266778267	0
451	147026	45.61273089276	0
451	147792	45.61773089276	0
451	148305	45.62273089276	0
451	149049	45.62773089276	0
451	149923	45.63273089276	0
451	150677	45.63773089276	0
451	151190	45.64273089276	0
451	151198	45.64773089276	0
451	152268	45.655215352291	0
451	153624	45.660215352291	0
451	154252	45.665215352291	0
451	154372	45.670215352291	0
451	155614	45.679894406759	0
451	156127	45.684894406759	0
451	156663	45.689894406759	0
451	157074	45.694894406759	0
451	157572	45.699894406759	0
451	158082	45.707243700092	0
451	158202	45.712243700092	0
451	158580	45.718843977177	0
451	158581	45.723843977177	0
451	159083	45.735998205972	0
451	159203	45.740998205972	0
451	159612	45.746548777471	0
451	159613	45.751548777471	0
451	160123	45.761462226615	0
451	160124	45.766462226615	0
451	160361	46.505	1
451	160817	46.51	24
451	162454	46.515	0
451	163846	46.52	0
451	165030	46.526296260737	0
451	166394	46.531296260737	0
451	166815	46.536296260737	0
451	167387	46.541296260737	0
451	168318	46.546296260737	0
451	168995	46.551296260737	0
451	169654	46.556296260737	0
451	170815	46.561296260737	0
451	173301	46.57340015798	0
451	174064	46.57840015798	0
451	175560	46.58844893808	0
451	176616	46.59344893808	0
451	177687	46.59844893808	0
451	178845	46.60344893808	0
451	179522	46.60844893808	0
451	180681	46.61344893808	0
451	181338	46.61844893808	0
451	186032	46.646876366711	0
451	186966	46.651876366711	0
451	187881	46.656876366711	0
451	188916	46.661876366711	0
451	189928	46.666876366711	0
451	191473	46.675153571505	0
451	192504	46.680153571505	0
451	193152	46.685153571505	0
451	193790	46.690153571505	0
451	194565	46.695153571505	0
451	195509	46.700153571505	0
451	196012	46.705153571505	0
451	197097	46.718905342641	0
451	197643	46.723905342641	0
451	198309	46.728905342641	0
451	198967	46.733905342641	0
451	199860	46.742455943158	0
451	200784	46.747455943158	0
451	201336	46.752455943158	0
451	201966	46.757455943158	0
451	202934	46.763378781425	0
451	203572	46.768378781425	0
451	204241	46.773378781425	0
451	205476	46.778378781425	0
451	205742	46.783378781425	0
451	206802	46.802338799677	0
451	206803	46.807338799677	0
451	207031	47.505	1
451	207044	47.51	0
451	208895	47.517019852527	36
451	210840	47.522019852527	0
451	212231	47.527019852527	0
451	213978	47.532019852527	0
451	215177	47.537019852527	0
451	216020	47.542019852527	0
451	217462	47.547019852527	0
451	219034	47.552019852527	0
451	219825	47.557019852527	0
451	221129	47.562019852527	0
451	222568	47.567019852527	0
451	224142	47.572019852527	0
451	225111	47.577019852527	0
451	226319	47.582019852527	0
451	227617	47.587019852527	0
451	229733	47.59584327027	0
451	230809	47.60084327027	0
451	232333	47.60584327027	0
451	233669	47.61084327027	0
451	235111	47.61584327027	0
451	238300	47.631052638072	0
451	239006	47.636052638072	0
451	240425	47.641052638072	0
451	241455	47.646052638072	0
451	242903	47.651052638072	0
451	245366	47.664021761619	0
451	246629	47.669021761619	0
451	248486	47.675970570018	0
451	249516	47.680970570018	0
451	251561	47.690311959891	0
451	252516	47.695311959891	0
451	253829	47.70237949385	0
451	255168	47.70737949385	0
451	255586	47.71237949385	0
451	256908	47.720087094277	0
451	257949	47.725087094277	0
451	259310	47.730087094277	0
451	259735	47.735087094277	0
451	260817	47.740087094277	0
451	262626	47.745087094277	0
451	263535	47.750087094277	0
451	264735	47.755087094277	0
451	266012	47.760087094277	0
451	267526	47.768613377157	0
451	268747	47.773613377157	0
451	269252	47.778613377157	0
451	270481	47.783613377157	0
451	271333	47.788613377157	0
451	271986	47.793613377157	0
451	273688	47.801933827983	0
451	274505	47.806933827983	0
451	275167	47.811933827983	0
451	276195	47.816933827983	0
451	276471	47.824415639314	0
451	277312	47.829415639314	0
451	278250	47.834415639314	0
451	279090	47.839415639314	0
451	280033	47.844415639314	0
451	280920	47.849415639314	0
451	282176	47.855810484538	0
451	283227	47.860810484538	0
451	283231	47.865810484538	0
451	284565	47.878062869501	0
451	285234	47.883062869501	0
451	285793	47.888062869501	0
451	286221	47.893654752714	0
451	286996	47.898654752714	0
451	288057	47.92942981973	0
451	288058	47.93442981973	0
451	288610	47.955083268491	0
451	288611	47.960083268491	0
451	288839	48.505	1
451	288846	48.51	0
451	291150	48.518779649547	46
451	293196	48.523779649547	0
451	294902	48.528779649547	0
451	296523	48.533779649547	0
451	297859	48.538779649547	0
451	299747	48.543779649547	0
451	301077	48.548779649547	0
451	303072	48.553779649547	0
451	304302	48.558779649547	0
451	305757	48.563779649547	0
451	306816	48.568779649547	0
451	308808	48.579389654497	0
451	310025	48.584389654497	0
451	311383	48.589389654497	0
451	312740	48.594389654497	0
451	313744	48.599389654497	0
451	315290	48.604389654497	0
451	318579	48.619651285744	0
451	319640	48.624651285744	0
451	323488	48.640902447628	0
451	324624	48.645902447628	0
451	325455	48.650902447628	0
451	327047	48.659087621289	0
451	328535	48.664087621289	0
451	329092	48.669087621289	0
451	330445	48.675013676504	0
451	331779	48.680013676504	0
451	333800	48.688836848445	0
451	334665	48.693836848445	0
451	335775	48.698836848445	0
451	336966	48.703836848445	0
451	338052	48.70995118093	0
451	339284	48.71495118093	0
451	340594	48.71995118093	0
451	341832	48.72495118093	0
451	343060	48.72995118093	0
451	343761	48.73495118093	0
451	344866	48.73995118093	0
451	346229	48.74495118093	0
451	347734	48.74995118093	0
451	349072	48.75495118093	0
451	350454	48.75995118093	0
451	351727	48.76495118093	0
451	353083	48.771841230818	0
451	354063	48.776841230818	0
451	355168	48.781841230818	0
451	355991	48.786841230818	0
451	357317	48.791841230818	0
451	358442	48.796841230818	0
451	359757	48.801841230818	0
451	361211	48.806841230818	0
451	362034	48.811841230818	0
451	362953	48.816841230818	0
451	363693	48.821841230818	0
451	364990	48.826841230818	0
451	367377	48.839684174525	0
451	368082	48.844684174525	0
451	369011	48.849684174525	0
451	370367	48.854684174525	0
451	371172	48.859684174525	0
451	371974	48.864684174525	0
451	372365	48.869684174525	0
451	373836	48.878220176366	0
451	374898	48.883220176366	0
451	375590	48.888220176366	0
451	376259	48.893220176366	0
451	377059	48.898220176366	0
451	377335	48.903220176366	0
451	377887	48.908220176366	0
451	379049	48.921741847693	0
451	379869	48.926741847693	0
451	380981	48.935497064615	0
451	381763	48.940497064615	0
451	381883	48.945497064615	0
451	382559	48.955135489056	0
451	383000	48.960135489056	0
451	383389	48.965135489056	0
451	384324	48.97246376057	0
451	384325	48.97746376057	0
451	385137	49.505	1
451	385263	49.51	0
451	386949	49.516037370879	35
451	388546	49.521037370879	0
451	390423	49.526771827461	0
451	391440	49.531771827461	0
451	392390	49.536771827461	0
451	393415	49.541771827461	0
451	394373	49.546771827461	0
451	397909	49.558673231485	0
451	399478	49.563673231485	0
451	401062	49.568673231485	0
451	402363	49.573673231485	0
451	404145	49.582339976082	0
451	405081	49.587339976082	0
451	406011	49.592339976082	0
451	407182	49.597339976082	0
451	409372	49.606118962156	0
451	410476	49.611118962156	0
451	411529	49.616118962156	0
451	412703	49.621118962156	0
451	416640	49.640000753622	0
451	417680	49.645000753622	0
451	418772	49.650000753622	0
451	420618	49.656919736324	0
451	421279	49.661919736324	0
451	422688	49.668371996845	0
451	423522	49.673371996845	0
451	425077	49.678371996845	0
451	426176	49.683371996845	0
451	427115	49.688371996845	0
451	428382	49.693371996845	0
451	429680	49.698371996845	0
451	430631	49.703371996845	0
451	431577	49.708904991103	0
451	432887	49.713904991103	0
451	433989	49.718904991103	0
451	435574	49.723904991103	0
451	437947	49.734301250991	0
451	438754	49.739301250991	0
451	440196	49.744301250991	0
451	440698	49.749301250991	0
451	443743	49.763000504828	0
451	444381	49.768000504828	0
451	445384	49.773000504828	0
451	446876	49.781080237491	0
451	448393	49.786080237491	0
451	449590	49.791080237491	0
451	450714	49.796080237491	0
451	451895	49.801080237491	0
451	452793	49.806080237491	0
451	454565	49.816030958534	0
451	455589	49.821030958534	0
451	456965	49.826781608501	0
451	458772	49.831781608501	0
451	459290	49.836781608501	0
451	460081	49.842985462105	0
451	460883	49.847985462105	0
451	461594	49.852985462105	0
451	462249	49.858734321602	0
451	463699	49.863734321602	0
451	464636	49.868734321602	0
451	466844	49.886615955423	0
451	467390	49.891615955423	0
451	468568	49.900707121313	0
451	469213	49.905707121313	0
451	469860	49.910707121313	0
451	470101	49.915707121313	0
451	470642	49.921302955703	0
451	470645	49.926302955703	0
451	472284	49.978677649973	0
451	472288	49.983677649973	0
451	473569	50.060347022014	0
451	474109	50.065347022014	0
451	474648	50.070347022014	0
451	475156	50.075347022014	0
451	475187	50.505	1
451	475808	50.51	46
451	478223	50.515	0
451	480388	50.52	0
451	482631	50.525	0
451	483847	50.53	0
451	484788	50.535	0
451	485958	50.540154929865	0
451	488344	50.545154929865	0
451	490002	50.551658974236	0
451	490957	50.556658974236	0
451	492640	50.561852758018	0
451	494005	50.566852758018	0
451	497208	50.580137013161	0
451	498698	50.585137013161	0
451	500395	50.590137013161	0
451	503476	50.607545254212	0
451	504677	50.612545254212	0
451	506577	50.61777930649	0
451	507881	50.62277930649	0
451	508772	50.62777930649	0
451	510175	50.63277930649	0
451	511623	50.63777930649	0
451	513934	50.644056199054	0
451	514912	50.649056199054	0
451	516576	50.656932398935	0
451	517870	50.661932398935	0
451	519447	50.666932398935	0
451	523635	50.690638291151	0
451	524886	50.695638291151	0
451	526604	50.700638291151	0
451	527735	50.705638291151	0
451	529251	50.710638291151	0
451	530459	50.715638291151	0
451	531703	50.723233587166	0
451	533197	50.728233587166	0
451	534735	50.733233587166	0
451	535931	50.738233587166	0
451	537122	50.743233587166	0
451	541395	50.762391729287	0
451	542737	50.767391729287	0
451	543434	50.772391729287	0
451	544230	50.777391729287	0
451	545310	50.782391729287	0
451	548983	50.796608870907	0
451	550295	50.801608870907	0
451	551622	50.806608870907	0
451	552592	50.811608870907	0
451	553233	50.816608870907	0
451	555252	50.825912034144	0
451	556193	50.830912034144	0
451	557435	50.835912034144	0
451	559159	50.843433242486	0
451	560491	50.848433242486	0
451	561335	50.853433242486	0
451	564160	50.866320922587	0
451	565846	50.871320922587	0
451	566665	50.876320922587	0
451	567884	50.881320922587	0
451	568408	50.886320922587	0
451	570164	50.899500513493	0
451	571061	50.904500513493	0
451	572434	50.909500513493	0
451	573163	50.914500513493	0
451	574429	50.922158173989	0
451	575368	50.927158173989	0
451	577226	50.937347586699	0
451	578312	50.942347586699	0
451	578439	50.947347586699	0
451	579015	50.953084734911	0
451	579713	50.958084734911	0
451	581112	50.965403002213	0
451	581762	50.970403002213	0
451	582211	50.975403002213	0
451	582756	50.980403002213	0
451	583560	50.985403002213	0
451	584717	50.995855756794	0
451	585487	51.000855756794	0
451	585905	51.005855756794	0
451	586685	51.010855756794	0
451	587389	51.040137692105	0
451	587390	51.045137692105	0
451	587428	51.505	1
451	588069	51.51	42
451	590295	51.515	0
451	591812	51.52	0
451	593848	51.525	0
451	594974	51.53	0
451	596752	51.535	0
451	598222	51.54	0
451	600773	51.548295482137	0
451	602637	51.553295482137	0
451	603622	51.558295482137	0
451	605413	51.565247934447	0
451	606752	51.570247934447	0
451	608836	51.580505476083	0
451	610580	51.585505476083	0
451	611384	51.590505476083	0
451	612747	51.595535522787	0
451	613941	51.600535522787	0
451	614958	51.605535522787	0
451	616984	51.614894765904	0
451	618451	51.619894765904	0
451	620068	51.624894765904	0
451	622132	51.634000176199	0
451	623216	51.639000176199	0
451	625506	51.649209948517	0
451	626436	51.654209948517	0
451	628359	51.661935948398	0
451	629688	51.666935948398	0
451	634026	51.683961971508	0
451	635094	51.688961971508	0
451	636668	51.695775110508	0
451	637967	51.700775110508	0
451	639495	51.705775110508	0
451	640476	51.712076528036	0
451	641799	51.717076528036	0
451	643045	51.722076528036	0
451	644254	51.727076528036	0
451	645077	51.732076528036	0
451	647070	51.740475924579	0
451	648104	51.745475924579	0
451	650546	51.756750260366	0
451	651113	51.761750260366	0
451	652964	51.77092298334	0
451	653509	51.77592298334	0
451	655101	51.783433457107	0
451	656044	51.788433457107	0
451	656522	51.794559819282	0
451	657474	51.799559819282	0
451	658582	51.804559819282	0
451	659843	51.811204574307	0
451	660515	51.816204574307	0
451	661209	51.821204574307	0
451	663654	51.833612722193	0
451	664320	51.838612722193	0
451	665692	51.844856191627	0
451	666783	51.849856191627	0
451	667227	51.854856191627	0
451	668042	51.859856191627	0
451	670698	51.870658780402	0
451	671642	51.875658780402	0
451	672185	51.880658780402	0
451	673460	51.886772997855	0
451	674011	51.891772997855	0
451	674684	51.896772997855	0
451	675914	51.901772997855	0
451	678018	51.915300595853	0
451	678690	51.920300595853	0
451	678821	51.925300595853	0
451	680064	51.936590267787	0
451	680760	51.941590267787	0
451	681753	51.946590267787	0
451	682284	51.951590267787	0
451	682288	51.956590267787	0
451	683618	52.001058880362	0
451	683619	52.006058880362	0
451	684184	52.017039474833	0
451	684185	52.022039474833	0
451	684747	52.102343499096	0
451	684748	52.107343499096	0
451	684791	52.505	1
451	685797	52.51	39
451	688066	52.515	0
451	689967	52.52	0
451	692317	52.525	0
451	693790	52.53	0
451	694753	52.535	0
451	696580	52.54	0
451	699829	52.551300758149	0
451	700928	52.556300758149	0
451	701884	52.561300758149	0
451	703331	52.566300758149	0
451	706620	52.58051008046	0
451	707293	52.58551008046	0
451	710768	52.598878009359	0
451	711956	52.603878009359	0
451	713308	52.609945356216	0
451	714010	52.614945356216	0
451	716436	52.628455137288	0
451	717593	52.633455137288	0
451	718783	52.640235979228	0
451	719884	52.645235979228	0
451	720879	52.650235979228	0
451	721925	52.655235979228	0
451	723910	52.66058381714	0
451	725105	52.66558381714	0
451	726062	52.67058381714	0
451	727180	52.679243993515	0
451	728389	52.684243993515	0
451	729341	52.689243993515	0
451	730435	52.694243993515	0
451	731397	52.699243993515	0
451	733173	52.707071936778	0
451	734181	52.712071936778	0
451	735294	52.717071936778	0
451	736475	52.722071936778	0
451	737464	52.727071936778	0
451	738555	52.732071936778	0
451	739496	52.737071936778	0
451	740348	52.742071936778	0
451	741613	52.748062083847	0
451	743159	52.753062083847	0
451	743704	52.758062083847	0
451	744658	52.763135271436	0
451	745425	52.768135271436	0
451	746808	52.774683328706	0
451	747716	52.779683328706	0
451	748242	52.784683328706	0
451	749838	52.790012786853	0
451	750822	52.795012786853	0
451	751572	52.800012786853	0
451	751993	52.808292018806	0
451	753123	52.813292018806	0
451	753896	52.818292018806	0
451	755154	52.827574060769	0
451	755868	52.832574060769	0
451	756356	52.837574060769	0
451	757508	52.842574060769	0
451	759707	52.854495907759	0
451	760384	52.859495907759	0
451	760793	52.865615365006	0
451	761734	52.870615365006	0
451	762701	52.875615365006	0
451	763136	52.880615365006	0
451	764717	52.888478624454	0
451	765652	52.893478624454	0
451	767561	52.904293603329	0
451	768142	52.909293603329	0
451	768725	52.914293603329	0
451	769959	52.919293603329	0
451	770768	52.924293603329	0
451	771049	52.929293603329	0
451	771717	52.934293603329	0
451	771863	52.939293603329	0
451	772989	52.946135699889	0
451	773112	52.951135699889	0
451	773527	52.956254490182	0
451	773528	52.961254490182	0
451	774071	52.992611927701	0
451	774072	52.997611927701	0
451	774336	53.505	1
451	774462	53.51	0
451	775475	53.515341460237	19
451	776837	53.520341460237	0
451	777789	53.525341460237	0
451	778601	53.530341460237	0
451	779525	53.535341460237	0
451	780450	53.540341460237	0
451	781266	53.545341460237	0
451	781970	53.550341460237	0
451	782800	53.555341460237	0
451	783078	53.560341460237	0
451	784152	53.565341460237	0
451	786386	53.578187027567	0
451	786947	53.583187027567	0
451	787220	53.588187027567	0
451	791365	53.612048738397	0
451	792259	53.617048738397	0
451	792809	53.622048738397	0
451	793920	53.62755088222	0
451	795023	53.63255088222	0
451	796652	53.63755088222	0
451	797910	53.64255088222	0
451	798965	53.64755088222	0
451	800019	53.65255088222	0
451	801289	53.65755088222	0
451	802213	53.66255088222	0
451	803311	53.66755088222	0
451	803834	53.67255088222	0
451	804783	53.68047000503	0
451	805750	53.68547000503	0
451	806304	53.69047000503	0
451	806615	53.69547000503	0
451	807485	53.70047000503	0
451	808164	53.70547000503	0
451	809135	53.710773750369	0
451	809769	53.715773750369	0
451	810628	53.720773750369	0
451	810883	53.725773750369	0
451	811297	53.732066218102	0
451	811857	53.737066218102	0
451	812956	53.759031147338	0
451	812957	53.764031147338	0
451	813864	53.792911152537	0
451	814575	53.797911152537	0
451	815159	53.802911152537	0
451	815844	53.807911152537	0
451	816243	53.812911152537	0
451	816529	54.505	1
451	817798	54.51	46
451	819897	54.515	0
451	821854	54.52	0
451	823360	54.525	0
451	824683	54.53	0
451	826445	54.536199903287	0
451	828265	54.541199903287	0
451	829655	54.546199903287	0
451	831159	54.551199903287	0
451	832523	54.556199903287	0
451	833842	54.561199903287	0
451	836096	54.568953770447	0
451	837393	54.573953770447	0
451	838759	54.578953770447	0
451	840709	54.584309963231	0
451	842592	54.589309963231	0
451	844137	54.594309963231	0
451	846553	54.606181994573	0
451	848019	54.611181994573	0
451	849390	54.616181994573	0
451	852063	54.626178819452	0
451	853288	54.631178819452	0
451	856986	54.64707318192	0
451	857994	54.65207318192	0