file 272200 1353341801                                          
version 2
run AODVScenario_1f-45-20121119-16:16:03-2044
attr configname AODVScenario_1f
attr datetime 20121119-16:16:03
attr experiment AODVScenario_1f
attr inifile AODV.ini
attr iterationvars $numNodes=95
attr iterationvars2 "$numNodes=95, $repetition=0"
attr measurement $numNodes=95
attr network csma802154net
attr numNodes 95
attr processid 2044
attr repetition 0
attr replication #0
attr resultdir results
attr runnumber 45
attr seedset 45

vector 391  csma802154net.dataCentricNetworkMan  RREQPacketFrequency  ETV
vector 392  csma802154net.dataCentricNetworkMan  RERRPacketFrequency  ETV
vector 393  csma802154net.dataCentricNetworkMan  DiscoveryPacketFrequency  ETV
vector 394  csma802154net.dataCentricNetworkMan  RegisterPacketFrequency  ETV
vector 395  csma802154net.dataCentricNetworkMan  RReplyPacketFrequency  ETV
vector 396  csma802154net.dataCentricNetworkMan  AODVDataPacketFrequency  ETV
vector 403  csma802154net.dataCentricNetworkMan  pendingRegistrationVector  ETV
vector 402  csma802154net.dataCentricNetworkMan  pendingRREQVector  ETV
vector 400  csma802154net.dataCentricNetworkMan  PendingDataPacketsVector  ETV
vector 409  csma802154net.fixhost[5].udpApp  "End-to-end delay"  ETV
vector 388  csma802154net.dataCentricNetworkMan  dataPacketE2EDelay  ETV
vector 412  csma802154net.fixhost[8].udpApp  "End-to-end delay"  ETV
vector 410  csma802154net.fixhost[6].udpApp  "End-to-end delay"  ETV
vector 414  csma802154net.fixhost[10].udpApp  "End-to-end delay"  ETV
vector 405  csma802154net.fixhost[1].udpApp  "End-to-end delay"  ETV
vector 418  csma802154net.fixhost[14].udpApp  "End-to-end delay"  ETV
vector 417  csma802154net.fixhost[13].udpApp  "End-to-end delay"  ETV
vector 416  csma802154net.fixhost[12].udpApp  "End-to-end delay"  ETV
vector 420  csma802154net.fixhost[16].udpApp  "End-to-end delay"  ETV
388	1872 5319 1094222 2706719 70.017876043746 7273.05768413718 117 0.013716063548 0.106644110458 4.102550896428 0.17185260980312
391	7191 41262 863 2706972 1.005 7273.063164109666 1436 0 94 2005 115379
392	48453 41223 863 2706972 1.005 7273.063164109666 1436 0 0 0 0
393	89676 41223 863 2706972 1.005 7273.063164109666 1436 0 0 0 0
394	130899 41223 863 2706972 1.005 7273.063164109666 1436 0 1 12 12
395	172122 41239 863 2706972 1.005 7273.063164109666 1436 0 118 1833 97879
396	213361 41241 863 2706972 1.005 7273.063164109666 1436 0 97 1486 73098
400	254602 10378 1092440 2706719 70 7273.05768413718 338 0 3 325 533
402	264980 1407 35298 1024787 43.50001 54.626095364841 50 0 1 17 17
403	266387 494 35293 1089119 43.5 55.036945516237 21 0 4 51 155
405	266881 587 1102432 2699814 72.040196086443 7272.024836086442 13 0.023876086444 0.040196086443 0.403229342136 0.012775926744483
409	267468 595 1094222 2691909 70.017876043746 7270.017876043746 13 0.017556043747 0.068860043747 0.449836568706 0.019729415437762
410	268063 589 1097403 2695771 71.028396075291 7271.019756075291 13 0.018796075291 0.049124075291 0.364484978778 0.011566102196483
412	268652 587 1094690 2693059 70.019724052011 7270.04372405201 13 0.016596052011 0.049412052011 0.362548676139 0.01222825654469
414	269239 595 1098329 2696696 71.042044098078 7271.028604098078 13 0.025796098077 0.055412098077 0.45775727501 0.017500257807423
416	269834 595 1107304 2703956 73.045644063548 7273.021396063546 13 0.013716063548 0.045644063548 0.311244826119 0.0085503714136994
417	270429 595 1106335 2705213 73.027076108423 7273.028036108421 13 0.026116108423 0.059604139619 0.447885596671 0.016674092406547
418	271024 591 1102914 2701274 72.106644110458 7272.034324110457 13 0.033364110459 0.106644110458 0.608357656143 0.032843278710371
420	271615 585 1109576 2706719 73.082500137182 7273.05768413718 13 0.03307616941 0.082500137182 0.697205976726 0.039984908541663
