file 258488 1353498943                                          
version 2
run AODVScenario_1f-48-20121121-11:55:13-1520
attr configname AODVScenario_1f
attr datetime 20121121-11:55:13
attr experiment AODVScenario_1f
attr inifile AODV.ini
attr iterationvars $numNodes=98
attr iterationvars2 "$numNodes=98, $repetition=0"
attr measurement $numNodes=98
attr network csma802154net
attr numNodes 98
attr processid 1520
attr repetition 0
attr replication #0
attr resultdir results
attr runnumber 48
attr seedset 48

vector 403  csma802154net.dataCentricNetworkMan  RREQPacketFrequency  ETV
vector 404  csma802154net.dataCentricNetworkMan  RERRPacketFrequency  ETV
vector 405  csma802154net.dataCentricNetworkMan  DiscoveryPacketFrequency  ETV
vector 406  csma802154net.dataCentricNetworkMan  RegisterPacketFrequency  ETV
vector 407  csma802154net.dataCentricNetworkMan  RReplyPacketFrequency  ETV
vector 408  csma802154net.dataCentricNetworkMan  AODVDataPacketFrequency  ETV
vector 415  csma802154net.dataCentricNetworkMan  pendingRegistrationVector  ETV
vector 414  csma802154net.dataCentricNetworkMan  pendingRREQVector  ETV
vector 412  csma802154net.dataCentricNetworkMan  PendingDataPacketsVector  ETV
vector 420  csma802154net.fixhost[4].udpApp  "End-to-end delay"  ETV
vector 400  csma802154net.dataCentricNetworkMan  dataPacketE2EDelay  ETV
vector 422  csma802154net.fixhost[6].udpApp  "End-to-end delay"  ETV
vector 425  csma802154net.fixhost[9].udpApp  "End-to-end delay"  ETV
vector 430  csma802154net.fixhost[14].udpApp  "End-to-end delay"  ETV
vector 423  csma802154net.fixhost[7].udpApp  "End-to-end delay"  ETV
vector 427  csma802154net.fixhost[11].udpApp  "End-to-end delay"  ETV
vector 435  csma802154net.fixhost[19].udpApp  "End-to-end delay"  ETV
vector 439  csma802154net.fixhost[23].udpApp  "End-to-end delay"  ETV
vector 424  csma802154net.fixhost[8].udpApp  "End-to-end delay"  ETV
vector 428  csma802154net.fixhost[12].udpApp  "End-to-end delay"  ETV
vector 418  csma802154net.fixhost[2].udpApp  "End-to-end delay"  ETV
400	2012 6476 852041 2553242 70.016916041518 7273.088572142992 143 0.014676053822 0.125372131505 5.802217408998 0.29126342414417
403	8488 38311 777 2553486 1.005 7273.095332112145 1356 0 108 2584 181026
404	46799 38264 777 2553486 1.005 7273.095332112145 1356 0 0 0 0
405	85063 38264 777 2553486 1.005 7273.095332112145 1356 0 0 0 0
406	123327 38264 777 2553486 1.005 7273.095332112145 1356 0 1 12 12
407	161591 38277 777 2553486 1.005 7273.095332112145 1356 0 112 1565 56565
408	199868 38282 777 2553486 1.005 7273.095332112145 1356 0 86 1378 42306
412	238150 11992 850011 2553242 70 7273.088572142992 390 0 3 455 871
414	250142 1315 43485 814641 43.50001 54.641986518229 47 0 1 15 15
415	251457 555 43480 846444 43.5 54.919575674097 23 0 2 18 24
418	252012 594 869921 2550037 73.125372131505 7273.035956108289 13 0.033716108288 0.125372131505 0.598277547042 0.034719239427679
420	252606 593 852041 2536403 70.016916041518 7270.031172041518 13 0.016276041519 0.040844041519 0.283332539742 0.0067845124391102
422	253199 593 852521 2535425 70.041804053822 7270.021396053821 13 0.014676053822 0.042124053822 0.347652699683 0.010710052990555
423	253792 593 858047 2540968 71.037276108056 7271.036532088032 13 0.021356056055 0.068492108056 0.431381088534 0.016201204944796
424	254385 594 868892 2551710 73.073140137615 7273.059884110193 13 0.037164110188 0.073140137615 0.734621597025 0.042805964290084
425	254979 577 852990 2535899 70.0462440808 7270.0258360808 13 0.019436080801 0.0504040808 0.464925050409 0.018010135628424
427	255556 593 858532 2541940 71.044276134177 7271.045844115128 13 0.037204115129 0.071972134177 0.691901473719 0.038276167908224
428	256149 592 869424 2553242 73.079788142991 7273.088572142992 13 0.039116142991 0.095220142991 0.918973858882 0.069550759017513
430	256741 583 857074 2540479 71.029596123771 7271.029916123771 13 0.029596123771 0.07890812377 0.606981603164 0.03177473434678
435	257324 592 861723 2545109 72.021356069532 7272.020716069532 13 0.02039606953 0.051612069531 0.341660903913 0.0099241407764843
439	257916 572 862195 2545585 72.02352408053 7272.02640408053 13 0.020076080527 0.05648408053 0.382509046885 0.01250651237452
