file 239334 1353324377                                          
version 2
run AODVScenario_1f-52-20121119-11:25:42-3588
attr configname AODVScenario_1f
attr datetime 20121119-11:25:42
attr experiment AODVScenario_1f
attr inifile AODV.ini
attr iterationvars $numNodes=102
attr iterationvars2 "$numNodes=102, $repetition=0"
attr measurement $numNodes=102
attr network csma802154net
attr numNodes 102
attr processid 3588
attr repetition 0
attr replication #0
attr resultdir results
attr runnumber 52
attr seedset 52

vector 419  csma802154net.dataCentricNetworkMan  RREQPacketFrequency  ETV
vector 420  csma802154net.dataCentricNetworkMan  RERRPacketFrequency  ETV
vector 421  csma802154net.dataCentricNetworkMan  DiscoveryPacketFrequency  ETV
vector 422  csma802154net.dataCentricNetworkMan  RegisterPacketFrequency  ETV
vector 423  csma802154net.dataCentricNetworkMan  RReplyPacketFrequency  ETV
vector 424  csma802154net.dataCentricNetworkMan  AODVDataPacketFrequency  ETV
vector 431  csma802154net.dataCentricNetworkMan  pendingRegistrationVector  ETV
vector 430  csma802154net.dataCentricNetworkMan  pendingRREQVector  ETV
vector 428  csma802154net.dataCentricNetworkMan  PendingDataPacketsVector  ETV
vector 437  csma802154net.fixhost[5].udpApp  "End-to-end delay"  ETV
vector 416  csma802154net.dataCentricNetworkMan  dataPacketE2EDelay  ETV
vector 439  csma802154net.fixhost[7].udpApp  "End-to-end delay"  ETV
vector 434  csma802154net.fixhost[2].udpApp  "End-to-end delay"  ETV
vector 446  csma802154net.fixhost[14].udpApp  "End-to-end delay"  ETV
vector 441  csma802154net.fixhost[9].udpApp  "End-to-end delay"  ETV
vector 447  csma802154net.fixhost[15].udpApp  "End-to-end delay"  ETV
vector 443  csma802154net.fixhost[11].udpApp  "End-to-end delay"  ETV
vector 435  csma802154net.fixhost[3].udpApp  "End-to-end delay"  ETV
vector 456  csma802154net.fixhost[24].udpApp  "End-to-end delay"  ETV
416	1875 5331 1062690 2731582 70.016276057944 7273.025156098017 117 0.007396017867 0.066756098018 2.86803577844 0.087491171026134
419	7206 35851 809 2731854 1.005 7273.03501 1250 0 122 2761 214107
420	43057 35802 809 2731854 1.005 7273.03501 1250 0 0 0 0
421	78859 35802 809 2731854 1.005 7273.03501 1250 0 0 0 0
422	114661 35802 809 2731854 1.005 7273.03501 1250 0 1 12 12
423	150463 35818 809 2731854 1.005 7273.03501 1250 0 109 1697 84117
424	186281 35821 809 2731854 1.005 7273.03501 1250 0 109 1294 74510
428	222102 10355 1060736 2731582 70 7273.025156098017 338 0 3 351 637
430	232457 1048 44860 954352 43.50001 54.565724800115 38 0 1 15 15
431	233505 498 44855 1057187 43.5 55.078600072287 21 0 4 39 111
434	234003 595 1064779 2720675 70.038356047447 7270.019724047447 13 0.016276047447 0.057980047447 0.297412616819 0.0085251431829364
435	234598 587 1073133 2730570 73.027084052531 7273.01876405253 13 0.014356052531 0.03021205253 0.275580682899 0.0061995590168455
437	235185 595 1062690 2720130 70.016276057944 7270.015636057945 13 0.014996057945 0.041484057946 0.257628753291 0.0057685043048401
439	235780 595 1064274 2722261 70.029276105025 7270.033684105026 13 0.029276105025 0.057292105025 0.483157365339 0.018865425984065
441	236375 587 1069046 2726484 71.046212060891 7271.043084060891 13 0.016276060891 0.046212060891 0.347580791577 0.010657425832745
443	236962 587 1072607 2730045 73.024916065391 7273.01627606539 13 0.01531606539 0.041804065391 0.276260850079 0.0068948068977544
446	237549 595 1067964 2725406 71.035116093227 7271.021996093226 13 0.018156093225 0.050404093227 0.377429211942 0.012598418100537
447	238144 595 1070293 2727731 72.008676017867 7272.009316017866 13 0.007396017867 0.010276017867 0.113748232266 0.0010020714725846
456	238739 595 1074150 2731582 73.066756098018 7273.025156098017 13 0.023876098018 0.066756098018 0.439237274228 0.016979816233825
