version 2
run AODVScenario_1f-4-20121119-11:05:23-544
attr configname AODVScenario_1f
attr datetime 20121119-11:05:23
attr experiment AODVScenario_1f
attr inifile AODV.ini
attr iterationvars $numNodes=54
attr iterationvars2 "$numNodes=54, $repetition=0"
attr measurement $numNodes=54
attr network csma802154net
attr numNodes 54
attr processid 544
attr repetition 0
attr replication #0
attr resultdir results
attr runnumber 4
attr seedset 4

vector 227  csma802154net.dataCentricNetworkMan  RREQPacketFrequency  ETV
vector 228  csma802154net.dataCentricNetworkMan  RERRPacketFrequency  ETV
vector 229  csma802154net.dataCentricNetworkMan  DiscoveryPacketFrequency  ETV
vector 230  csma802154net.dataCentricNetworkMan  RegisterPacketFrequency  ETV
vector 231  csma802154net.dataCentricNetworkMan  RReplyPacketFrequency  ETV
vector 232  csma802154net.dataCentricNetworkMan  AODVDataPacketFrequency  ETV
vector 239  csma802154net.dataCentricNetworkMan  pendingRegistrationVector  ETV
vector 238  csma802154net.dataCentricNetworkMan  pendingRREQVector  ETV
vector 236  csma802154net.dataCentricNetworkMan  PendingDataPacketsVector  ETV
vector 250  csma802154net.fixhost[10].udpApp  "End-to-end delay"  ETV
vector 224  csma802154net.dataCentricNetworkMan  dataPacketE2EDelay  ETV
vector 253  csma802154net.fixhost[13].udpApp  "End-to-end delay"  ETV
vector 252  csma802154net.fixhost[12].udpApp  "End-to-end delay"  ETV
vector 248  csma802154net.fixhost[8].udpApp  "End-to-end delay"  ETV
vector 266  csma802154net.fixhost[26].udpApp  "End-to-end delay"  ETV
vector 257  csma802154net.fixhost[17].udpApp  "End-to-end delay"  ETV
vector 244  csma802154net.fixhost[4].udpApp  "End-to-end delay"  ETV
vector 245  csma802154net.fixhost[5].udpApp  "End-to-end delay"  ETV
vector 246  csma802154net.fixhost[6].udpApp  "End-to-end delay"  ETV
vector 254  csma802154net.fixhost[14].udpApp  "End-to-end delay"  ETV
vector 249  csma802154net.fixhost[9].udpApp  "End-to-end delay"  ETV
vector 258  csma802154net.fixhost[18].udpApp  "End-to-end delay"  ETV
224	327267	70.011836046695	0.011836046695
224	328207	70.025156119215	0.025156119215
224	328508	70.035932093506	0.035932093506
224	330722	71.03991606975	0.03991606975
224	331314	71.085492105638	0.085492105638
224	331628	71.089260097708	0.089260097708
224	332365	72.007076009599	0.007076009599
224	332668	72.012156024771	0.012156024771
224	332975	72.016596045097	0.016596045097
224	334639	73.018516053856	0.018516053856
224	335077	73.025772028147	0.025772028147
224	335675	73.049372069799	0.049372069799
224	402707	670.010236046695	0.010236046695
224	403338	670.018796093507	0.018796093507
224	404818	670.074292119215	0.074292119215
224	406571	671.02071606975	0.02071606975
224	407472	671.074612105638	0.074612105638
224	407787	671.080940097708	0.080940097708
224	408524	672.008676009599	0.008676009599
224	408827	672.013116024771	0.013116024771
224	409134	672.018196045097	0.018196045097
224	410799	673.017876053856	0.017876053856
224	411095	673.021036069799	0.021036069799
224	411402	673.027052028147	0.027052028147
224	478433	1270.014716046695	0.014716046695
224	479187	1270.024236093507	0.024236093507
224	479795	1270.053564119214	0.053564119214
224	481426	1271.02359606975	0.02359606975
224	482043	1271.034364097708	0.034364097708
224	482347	1271.036604105638	0.036604105638
224	483088	1272.009956009599	0.009956009599
224	483391	1272.01407602477	0.01407602477
224	483698	1272.018836045096	0.018836045096
224	485372	1273.021644053856	0.021644053856
224	485676	1273.025132028147	0.025132028147
224	485978	1273.033692069798	0.033692069798
224	553064	1870.011516046694	0.011516046694
224	554003	1870.025156119214	0.025156119214
224	554297	1870.027044093506	0.027044093506
224	556233	1871.023524069748	0.023524069748
224	556544	1871.026436105636	0.026436105636
224	556855	1871.028924097706	0.028924097706
224	557593	1872.010276009599	0.010276009599
224	557895	1872.01407602477	0.01407602477
224	558202	1872.019476045096	0.019476045096
224	559565	1873.017276028147	0.017276028147
224	559996	1873.021964053856	0.021964053856
224	560600	1873.047204069798	0.047204069798
224	627632	2470.012796046695	0.012796046695
224	628383	2470.019756093506	0.019756093506
224	628991	2470.049084119215	0.049084119215
224	630622	2471.021996069749	0.021996069749
224	631238	2471.029564097707	0.029564097707
224	631542	2471.031804105637	0.031804105637
224	632283	2472.007396009599	0.007396009599
224	632586	2472.01151602477	0.01151602477
224	632893	2472.015956045095	0.015956045095
224	634693	2473.020972028147	0.020972028147
224	634994	2473.024484069799	0.024484069799
224	635603	2473.043332053855	0.043332053855
224	702628	3070.012476046695	0.012476046695
224	703261	3070.021036093507	0.021036093507
224	703863	3070.027644119215	0.027644119215
224	705806	3071.030276105637	0.030276105637
224	706121	3071.032836097707	0.032836097707
224	706425	3071.035292069749	0.035292069749
224	707159	3072.008036009599	0.008036009599
224	707462	3072.012796024771	0.012796024771
224	707769	3072.017556045097	0.017556045097
224	709436	3073.020796028147	0.020796028147
224	709740	3073.024524053856	0.024524053856
224	710037	3073.030564069799	0.030564069799
224	777123	3670.012796046695	0.012796046695
224	777877	3670.021996093507	0.021996093507
224	778485	3670.051324119215	0.051324119215
224	780420	3671.02359606975	0.02359606975
224	780861	3671.028036097708	0.028036097708
224	781170	3671.049724105638	0.049724105638
224	781911	3672.008676009599	0.008676009599
224	782214	3672.013436024771	0.013436024771
224	782521	3672.017876045097	0.017876045097
224	783575	3673.013116028147	0.013116028147
224	784185	3673.024524053856	0.024524053856
224	784785	3673.034724069799	0.034724069799
224	851817	4270.011516046695	0.011516046695
224	852760	4270.022884093507	0.022884093507
224	853056	4270.029244119215	0.029244119215
224	854999	4271.027396105636	0.027396105636
224	855319	4271.031804097706	0.031804097706
224	855628	4271.054100069748	0.054100069748
224	856362	4272.008036009599	0.008036009599
224	856665	4272.01247602477	0.01247602477
224	856972	4272.016596045096	0.016596045096
224	858144	4273.013756028146	0.013756028146
224	858760	4273.043404053855	0.043404053855
224	859362	4273.050652069797	0.050652069797
224	926394	4870.012156046695	0.012156046695
224	927146	4870.021356093507	0.021356093507
224	927753	4870.048764119214	0.048764119214
224	929504	4871.020716069749	0.020716069749
224	930122	4871.049724105638	0.049724105638
224	930437	4871.055412097707	0.055412097707
224	931174	4872.006756009599	0.006756009599
224	931477	4872.011836024771	0.011836024771
224	931784	4872.016916045097	0.016916045097
224	933148	4873.015284028147	0.015284028147
224	933452	4873.018516053856	0.018516053856
224	934055	4873.031772069799	0.031772069799
224	1001141	5470.011836046694	0.011836046694
224	1001777	5470.021676093506	0.021676093506
224	1002376	5470.028604119214	0.028604119214
224	1004323	5471.028356097707	0.028356097707
224	1004759	5471.032124105637	0.032124105637
224	1006700	5471.13036406975	0.13036406975
224	1007434	5472.009956009599	0.009956009599
224	1007737	5472.014716024771	0.014716024771
224	1008044	5472.018196045096	0.018196045096
224	1009403	5473.016916053856	0.016916053856
224	1009705	5473.019764028147	0.019764028147
224	1010446	5473.053212069799	0.053212069799
224	1077478	6070.013436046695	0.013436046695
224	1078418	6070.026436119215	0.026436119215
224	1078718	6070.031132093507	0.031132093507
224	1080662	6071.031844069749	0.031844069749
224	1080967	6071.034684105638	0.034684105638
224	1081281	6071.038204097708	0.038204097708
224	1082019	6072.012516009599	0.012516009599
224	1082321	6072.016636024771	0.016636024771
224	1082628	6072.022036045097	0.022036045097
224	1083994	6073.016564028147	0.016564028147
224	1084427	6073.022924053856	0.022924053856
224	1085031	6073.046884069798	0.046884069798
224	1152063	6670.012796046695	0.012796046695
224	1152695	6670.021036093507	0.021036093507
224	1153292	6670.028036119215	0.028036119215
224	1155349	6671.027716105638	0.027716105638
224	1155665	6671.032124097708	0.032124097708
224	1155975	6671.04848406975	0.04848406975
224	1156709	6672.008676009598	0.008676009598
224	1157012	6672.01311602477	0.01311602477
224	1157319	6672.018196045096	0.018196045096
224	1158988	6673.017236053855	0.017236053855
224	1159288	6673.020012028147	0.020012028147
224	1159589	6673.022884069799	0.022884069799
224	1226675	7270.012796046695	0.012796046695
224	1227737	7270.025156119215	0.025156119215
224	1228344	7270.052252093507	0.052252093507
224	1230095	7271.021676069749	0.021676069749
224	1230717	7271.050364097706	0.050364097706
224	1231024	7271.053812105636	0.053812105636
224	1231765	7272.009636009599	0.009636009599
224	1232068	7272.014396024771	0.014396024771
224	1232375	7272.019156045097	0.019156045097
224	1234045	7273.020156028147	0.020156028147
224	1234346	7273.022284053855	0.022284053855
224	1234642	7273.027364069798	0.027364069798
227	494	1.005	1
227	741	1.01	42
227	1621	1.015	54
227	2758	1.02	47
227	3913	1.025	22
227	4739	1.03	38
227	5433	1.035	56
227	5972	1.04	25
227	6289	1.045	27
227	6685	1.05	23
227	6814	1.055	16
227	7075	1.06	32
227	7100	1.065	0
227	7577	1.072248481293	29
227	7641	1.077248481293	0
227	7758	1.083835799666	13
227	7995	1.088835799666	13
227	8119	1.093835799666	15
227	8120	1.098835799666	0
227	8332	1.135604018616	20
227	8333	1.140604018616	0
227	13095	43.505	1
227	14189	43.51	27
227	14982	43.515	0
227	15596	43.52	0
227	16258	43.525407026763	0
227	16480	43.530407026763	0
227	17062	43.535407026763	0
227	17770	43.540701933767	0
227	18361	43.545701933767	0
227	18910	43.550701933767	0
227	19318	43.555701933767	0
227	21248	43.570280271028	0
227	21839	43.575280271028	0
227	22346	43.580280271028	0
227	24129	43.599800529621	0
227	24507	43.604800529621	0
227	25264	43.610189083411	0
227	25672	43.615189083411	0
227	26422	43.62378869118	0
227	26941	43.62878869118	0
227	28555	43.647965417552	0
227	29103	43.652965417552	0
227	29955	43.663448553261	0
227	30567	43.668448553261	0
227	31174	43.673448553261	0
227	31743	43.678448553261	0
227	32547	43.685092701952	0
227	32996	43.690092701952	0
227	33697	43.699829156583	0
227	34102	43.704829156583	0
227	34506	43.709829156583	0
227	34961	43.714829156583	0
227	35239	43.719829156583	0
227	35741	43.724829156583	0
227	36325	43.729829156583	0
227	36454	43.734829156583	0
227	36856	43.739829156583	0
227	36927	43.744829156583	0
227	37556	43.75079920453	0
227	37865	43.75579920453	0
227	38160	43.761426744514	0
227	38509	43.766426744514	0
227	38902	43.771426744514	0
227	39352	43.776426744514	0
227	40134	43.795409840194	0
227	40641	43.800409840194	0
227	41035	43.805409840194	0
227	41040	43.810409840194	0
227	41792	43.825656253828	0
227	41793	43.830656253828	0
227	42498	43.849921361778	0
227	42712	43.854921361778	0
227	42718	43.859921361778	0
227	43242	43.874577994411	0
227	43243	43.879577994411	0
227	43775	43.913959824287	0
227	43776	43.918959824287	0
227	43892	44.505	1
227	43962	44.51	0
227	44662	44.515438154401	15
227	45140	44.520438154401	0
227	45746	44.529128610318	0
227	45971	44.534128610318	0
227	46133	44.539128610318	0
227	46438	44.544128610318	0
227	46906	44.549128610318	0
227	47394	44.554128610318	0
227	47796	44.559128610318	0
227	48203	44.564128610318	0
227	48546	44.569128610318	0
227	48886	44.574128610318	0
227	49158	44.579128610318	0
227	49751	44.589864663972	0
227	50288	44.594864663972	0
227	50631	44.599864663972	0
227	52421	44.620108649002	0
227	52819	44.625108649002	0
227	53096	44.630108649002	0
227	53443	44.636474810776	0
227	53701	44.641474810776	0
227	53913	44.650368625082	0
227	54452	44.655368625082	0
227	55472	44.666570836834	0
227	55808	44.671570836834	0
227	56823	44.68352469581	0
227	57103	44.68852469581	0
227	57379	44.69352469581	0
227	57626	44.69852469581	0
227	57885	44.705710949901	0
227	57889	44.710710949901	0
227	58745	44.725326295828	0
227	58958	44.730326295828	0
227	59765	44.756590339909	0
227	59766	44.761590339909	0
227	59888	45.505	1
227	60158	45.51	16
227	60930	45.515	0
227	61609	45.52	0
227	61955	45.525	0
227	62440	45.53	0
227	62907	45.535	0
227	63138	45.54	0
227	63627	45.545	0
227	63853	45.55	0
227	64506	45.555	0
227	64856	45.56	0
227	65349	45.565	0
227	65649	45.57	0
227	66090	45.575	0
227	66450	45.58	0
227	67108	45.587306208195	0
227	67265	45.592306208195	0
227	67668	45.597306208195	0
227	68336	45.607514211655	0
227	68531	45.612514211655	0
227	68956	45.624264975059	0
227	69189	45.629264975059	0
227	71827	45.676608123675	0
227	72314	45.681608123675	0
227	73191	45.706139343738	0
227	73637	45.711139343738	0
227	73906	45.733193992833	0
227	74116	45.738193992833	0
227	74398	45.743193992833	0
227	74942	45.748193992833	0
227	75155	45.753193992833	0
227	76030	45.763627629194	0
227	76228	45.768627629194	0
227	76503	45.78352363401	0
227	76567	45.78852363401	0
227	76967	46.505	1
227	77793	46.51	23
227	78878	46.515	0
227	79607	46.52	0
227	80241	46.525	0
227	80802	46.53	0
227	81233	46.535	0
227	81722	46.54	0
227	82099	46.545	0
227	82503	46.55	0
227	83007	46.555	0
227	83504	46.56	0
227	84372	46.566636204079	0
227	84914	46.571636204079	0
227	85371	46.579461343655	0
227	85825	46.584461343655	0
227	86374	46.589461343655	0
227	88556	46.610559938115	0
227	89015	46.615559938115	0
227	90814	46.639958370698	0
227	91301	46.644958370698	0
227	91714	46.649958370698	0
227	92428	46.655093238734	0
227	93079	46.660093238734	0
227	93491	46.665093238734	0
227	93856	46.670093238734	0
227	94582	46.675093238734	0
227	95261	46.680093238734	0
227	95618	46.685093238734	0
227	95999	46.690093238734	0
227	96365	46.696359944596	0
227	96592	46.701359944596	0
227	97188	46.706359944596	0
227	97777	46.711359944596	0
227	98262	46.716359944596	0
227	98545	46.721359944596	0
227	98820	46.726359944596	0
227	99335	46.732752680738	0
227	100027	46.737752680738	0
227	100660	46.742752680738	0
227	101197	46.747752680738	0
227	101607	46.752752680738	0
227	101887	46.757752680738	0
227	102241	46.762752680738	0
227	102773	46.768629264187	0
227	103347	46.773629264187	0
227	103571	46.778629264187	0
227	104104	46.785856819648	0
227	104428	46.790856819648	0
227	104643	46.796693366681	0
227	104926	46.801693366681	0
227	105272	46.806693366681	0
227	106021	46.844993561723	0
227	106022	46.849993561723	0
227	106405	47.505	1
227	106418	47.51	0
227	107367	47.517012635178	28
227	108625	47.522012635178	0
227	109279	47.527012635178	0
227	109793	47.532012635178	0
227	110305	47.537012635178	0
227	111029	47.542012635178	0
227	111470	47.547012635178	0
227	111972	47.552012635178	0
227	113541	47.564722155843	0
227	114234	47.569722155843	0
227	115592	47.578059868189	0
227	115901	47.583059868189	0
227	116571	47.588059868189	0
227	116932	47.593059868189	0
227	117623	47.598059868189	0
227	118947	47.610454733407	0
227	119427	47.615454733407	0
227	121806	47.642066884875	0
227	122393	47.647066884875	0
227	122869	47.652066884875	0
227	123417	47.657066884875	0
227	124900	47.674684409411	0
227	125514	47.679684409411	0
227	125991	47.684684409411	0
227	126978	47.694496291227	0
227	127458	47.699496291227	0
227	128139	47.705547254478	0
227	128755	47.710547254478	0
227	129265	47.715547254478	0
227	129883	47.720547254478	0
227	130395	47.725547254478	0
227	130939	47.730547254478	0
227	131610	47.735547254478	0
227	131936	47.740547254478	0
227	132920	47.749528015209	0
227	133344	47.754528015209	0
227	133857	47.759528015209	0
227	134534	47.764528015209	0
227	135087	47.769528015209	0
227	135230	47.774528015209	0
227	136275	47.788029452242	0
227	136784	47.793029452242	0
227	137128	47.798029452242	0
227	137746	47.804735814409	0
227	137878	47.809735814409	0
227	138307	47.817482000327	0
227	138308	47.822482000327	0
227	138719	47.833722686404	0
227	138859	47.838722686404	0
227	139560	47.88503288432	0
227	139846	47.89003288432	0
227	140304	48.505	1
227	141145	48.51	31
227	142009	48.515	0
227	143192	48.52	0
227	143534	48.525	0
227	144144	48.53	0
227	144789	48.535	0
227	145441	48.54	0
227	146451	48.545	0
227	147209	48.55	0
227	148154	48.555	0
227	148823	48.56	0
227	149552	48.565	0
227	149989	48.57	0
227	150737	48.575	0
227	153144	48.59668352732	0
227	153815	48.60168352732	0
227	155742	48.620939538147	0
227	156550	48.625939538147	0
227	156979	48.630939538147	0
227	158236	48.643204030679	0
227	158835	48.648204030679	0
227	159631	48.653204030679	0
227	160967	48.664655680495	0
227	161319	48.669655680495	0
227	161884	48.674655680495	0
227	162554	48.679655680495	0
227	163025	48.684655680495	0
227	163896	48.694461775036	0
227	164403	48.699461775036	0
227	164778	48.704461775036	0
227	165560	48.709461775036	0
227	166263	48.714461775036	0
227	166947	48.719461775036	0
227	167369	48.724461775036	0
227	167581	48.729461775036	0
227	168197	48.734731148651	0
227	168799	48.739731148651	0
227	169070	48.744731148651	0
227	169619	48.750387751482	0
227	170121	48.755387751482	0
227	170536	48.760387751482	0
227	170753	48.765387751482	0
227	171183	48.770387751482	0
227	171548	48.775387751482	0
227	172205	48.783295847262	0
227	172737	48.788295847262	0
227	173086	48.793295847262	0
227	173158	48.798295847262	0
227	173652	48.807429805534	0
227	173975	48.812429805534	0
227	174205	48.817429805534	0
227	174781	48.825840653837	0
227	174782	48.830840653837	0
227	175595	48.877053819732	0
227	175885	48.882053819732	0
227	176166	48.887053819732	0
227	176167	48.892053819732	0
227	176310	49.505	1
227	176380	49.51	0
227	177541	49.516725781346	25
227	178237	49.521725781346	0
227	179010	49.5272341696	0
227	179828	49.5322341696	0
227	180093	49.5372341696	0
227	180453	49.5422341696	0
227	181155	49.548724424033	0
227	181503	49.553724424033	0
227	181949	49.558724424033	0
227	182634	49.563724424033	0
227	183505	49.570939050514	0
227	184151	49.575939050514	0
227	185864	49.593500416914	0
227	186234	49.598500416914	0
227	186676	49.603500416914	0
227	187273	49.609277716966	0
227	188010	49.614277716966	0
227	188587	49.620567367361	0
227	189084	49.625567367361	0
227	190057	49.631256799643	0
227	190503	49.636256799643	0
227	191116	49.641256799643	0
227	191775	49.652691180748	0
227	192267	49.657691180748	0
227	192928	49.662691180748	0
227	193540	49.667691180748	0
227	194169	49.672691180748	0
227	194439	49.677691180748	0
227	194744	49.682935070245	0
227	195279	49.687935070245	0
227	195771	49.692935070245	0
227	196427	49.697935070245	0
227	197504	49.716015619802	0
227	197923	49.721015619802	0
227	198295	49.726015619802	0
227	198863	49.731015619802	0
227	199375	49.736015619802	0
227	199718	49.741015619802	0
227	200243	49.747517743645	0
227	200601	49.752517743645	0
227	200831	49.757517743645	0
227	200832	49.762517743645	0
227	201676	49.787801784036	0
227	201974	49.792801784036	0
227	202333	49.797801784036	0
227	202846	49.802801784036	0
227	202850	49.807801784036	0
227	203138	49.817105797805	0
227	203139	49.822105797805	0
227	203427	49.832375331008	0
227	203428	49.837375331008	0
227	203559	50.505	1
227	203572	50.51	0
227	204755	50.517077482436	32
227	205888	50.522077482436	0
227	206531	50.527077482436	0
227	207175	50.532441861348	0
227	207706	50.537441861348	0
227	208297	50.542441861348	0
227	209062	50.547441861348	0
227	209685	50.552441861348	0
227	210347	50.558455540203	0
227	211349	50.563455540203	0
227	211943	50.568455540203	0
227	212777	50.573455540203	0
227	213422	50.578455540203	0
227	214219	50.585646576456	0
227	214760	50.590646576456	0
227	215240	50.595646576456	0
227	216249	50.605035434928	0
227	216832	50.610035434928	0
227	217515	50.615035434928	0
227	218330	50.621773636285	0
227	218840	50.626773636285	0
227	219339	50.631773636285	0
227	221921	50.654067541529	0
227	222551	50.659067541529	0
227	223043	50.664067541529	0
227	223785	50.671790957987	0
227	224229	50.676790957987	0
227	225131	50.684861801605	0
227	225644	50.689861801605	0
227	226408	50.694861801605	0
227	227051	50.699861801605	0
227	227568	50.704861801605	0
227	228212	50.709861801605	0
227	228747	50.71590585765	0
227	229259	50.72090585765	0
227	230020	50.72590585765	0
227	230545	50.73090585765	0
227	230981	50.73590585765	0
227	231638	50.745091743653	0
227	232158	50.750091743653	0
227	233033	50.759341998778	0
227	233562	50.764341998778	0
227	233873	50.769341998778	0
227	234515	50.774341998778	0
227	234921	50.779341998778	0
227	235410	50.784341998778	0
227	235862	50.789341998778	0
227	236360	50.794341998778	0
227	237040	50.800915104874	0
227	237598	50.805915104874	0
227	237965	50.810915104874	0
227	238555	50.815915104874	0
227	238789	50.820915104874	0
227	239307	50.825915104874	0
227	239830	50.830915104874	0
227	240425	50.841688157327	0
227	240426	50.846688157327	0
227	240719	50.869072260313	0
227	240783	50.874072260313	0
227	241020	50.880650982981	0
227	241084	50.885650982981	0
227	241314	50.890950055289	0
227	241315	50.895950055289	0
227	241601	50.932734078259	0
227	241602	50.937734078259	0
227	241898	50.958594997777	0
227	241899	50.963594997777	0
227	242330	51.505	1
227	242560	51.51	17
227	243202	51.515	0
227	243756	51.52	0
227	244489	51.52743785546	0
227	244642	51.53243785546	0
227	244870	51.53743785546	0
227	245361	51.54243785546	0
227	245785	51.549220953482	0
227	245994	51.554220953482	0
227	246807	51.563277423328	0
227	247322	51.568277423328	0
227	247769	51.573277423328	0
227	248194	51.578277423328	0
227	248781	51.583354756841	0
227	249205	51.588354756841	0
227	249805	51.593354756841	0
227	250390	51.598354756841	0
227	250872	51.603354756841	0
227	251231	51.608354756841	0
227	251716	51.613354756841	0
227	252655	51.628013450939	0
227	253081	51.633013450939	0
227	253604	51.638013450939	0
227	254023	51.643013450939	0
227	254649	51.648013450939	0
227	255039	51.653013450939	0
227	255327	51.658013450939	0
227	256744	51.696136923105	0
227	257098	51.701136923105	0
227	257436	51.706136923105	0
227	258079	51.717407493845	0
227	258385	51.722407493845	0
227	258801	51.727407493845	0
227	259439	51.733208370869	0
227	259723	51.738208370869	0
227	259863	51.743208370869	0
227	260265	51.751291435965	0
227	260341	51.756291435965	0
227	261246	51.776466946228	0
227	261310	51.781466946228	0
227	261529	51.786819676172	0
227	261594	51.791819676172	0
227	261814	51.796819676172	0
227	262237	51.801819676172	0
227	262445	51.806819676172	0
227	262663	51.812360385232	0
227	262664	51.817360385232	0
227	263158	52.505	1
227	263697	52.51	20
227	264574	52.515	0
227	265376	52.52	0
227	265784	52.525	0
227	266466	52.53	0
227	266790	52.535	0
227	267291	52.54	0
227	268075	52.545	0
227	268542	52.55	0
227	269019	52.555	0
227	269611	52.561686960691	0
227	270149	52.566686960691	0
227	270586	52.571686960691	0
227	271077	52.576686960691	0
227	271596	52.581686960691	0
227	271738	52.586686960691	0
227	272106	52.595100684553	0
227	272820	52.600100684553	0
227	272904	52.605100684553	0
227	273818	52.615180276884	0
227	273973	52.620180276884	0
227	274565	52.62536655061	0
227	274942	52.63036655061	0
227	275463	52.63536655061	0
227	275827	52.64036655061	0
227	275836	52.64536655061	0
227	276406	52.652172693407	0
227	276717	52.657172693407	0
227	277416	52.662172693407	0
227	278340	52.674353185133	0
227	278426	52.679353185133	0
227	278877	52.689031200322	0
227	279464	52.694031200322	0
227	279901	52.699031200322	0
227	280262	52.704031200322	0
227	280563	52.709031200322	0
227	280637	52.714031200322	0
227	281003	52.720611306369	0
227	281437	52.725611306369	0
227	281501	52.730611306369	0
227	281725	52.736625206007	0
227	281731	52.741625206007	0
227	282354	52.751027334624	0
227	282596	52.756027334624	0
227	282597	52.761027334624	0
227	283191	52.79574733261	0
227	283192	52.80074733261	0
227	283336	53.505	1
227	283406	53.51	0
227	284002	53.515032647195	15
227	284586	53.520032647195	0
227	285271	53.525032647195	0
227	285856	53.530032647195	0
227	286290	53.535032647195	0
227	286813	53.540032647195	0
227	287359	53.545032647195	0
227	288004	53.550032647195	0
227	288286	53.555032647195	0
227	288816	53.564561067031	0
227	289197	53.569561067031	0
227	289777	53.574561067031	0
227	290246	53.579561067031	0
227	291481	53.594401062032	0
227	291643	53.599401062032	0
227	292046	53.605659225506	0
227	292417	53.610659225506	0
227	292779	53.615659225506	0
227	293450	53.623054304561	0
227	293936	53.628054304561	0
227	294103	53.633054304561	0
227	294748	53.645818798855	0
227	295250	53.650818798855	0
227	295606	53.655818798855	0
227	296432	53.666083026729	0
227	296578	53.671083026729	0
227	297189	53.679402796491	0
227	297253	53.684402796491	0
227	297784	53.69040322982	0
227	297785	53.69540322982	0
227	298951	53.721723287927	0
227	299233	53.726723287927	0
227	299234	53.731723287927	0
227	299514	53.790238060033	0
227	299515	53.795238060033	0
227	299662	54.505	1
227	299672	54.51	0
227	300669	54.517417663711	23
227	301316	54.522417663711	0
227	302090	54.527417663711	0
227	302659	54.532417663711	0
227	303247	54.537417663711	0
227	304030	54.542417663711	0
227	304662	54.547417663711	0
227	305247	54.553949971276	0
227	305763	54.558949971276	0
227	306360	54.563949971276	0
227	307000	54.568949971276	0
227	307815	54.575240766645	0
227	308243	54.580240766645	0
227	309057	54.585903735281	0
227	309640	54.590903735281	0
227	310182	54.595903735281	0
227	310627	54.600903735281	0
227	311551	54.610082634061	0
227	312241	54.615082634061	0
227	313065	54.620082634061	0
227	313509	54.625082634061	0
227	313912	54.630082634061	0
227	314576	54.637320613697	0
227	315329	54.642320613697	0
227	316000	54.647320613697	0
227	316359	54.652320613697	0
227	316800	54.657320613697	0
227	317384	54.662320613697	0
227	317941	54.667320613697	0
227	318317	54.672320613697	0
227	318986	54.677320613697	0
227	319727	54.687081988377	0
227	319954	54.692081988377	0
227	320263	54.697081988377	0
227	320472	54.702081988377	0
227	320845	54.711218255927	0
227	320846	54.716218255927	0
227	321732	54.731675307078	0
227	321882	54.736675307078	0
227	321946	54.741675307078	0
227	322324	54.748363438462	0
227	322547	54.753363438462	0
227	323088	54.759623886572	0
227	323392	54.764623886572	0
227	323394	54.769623886572	0
227	324562	54.84928636935	0
227	324563	54.85428636935	0
227	326787	70.00501	0
227	327117	70.01001	0
227	327486	70.01501	0
227	327801	70.02001	0
227	328112	70.02501	0
227	328345	70.03001	0
227	328409	70.03501	0
227	328646	70.040932093506	0
227	328647	70.045932093506	0
227	329042	71.00501	0
227	329049	71.01001	0
227	329348	71.016236026307	0
227	329352	71.021236026307	0
227	329979	71.028046040505	0
227	330137	71.033046040505	0
227	330565	71.038046040505	0
227	330873	71.04491606975	0
227	330874	71.04991606975	0
227	331782	71.090492105638	0
227	331783	71.095492105638	0
227	332215	72.00501	0
227	332518	72.01001	0
227	332825	72.01501	0
227	333114	72.02001	0
227	333115	72.02501	0
227	333552	73.00501	0
227	333866	73.01001	0
227	334235	73.01501	0
227	334839	73.02001	0
227	334978	73.02501	0
227	335221	73.030772028147	0
227	335222	73.035772028147	0
227	335820	73.054372069799	0
227	335821	73.059372069799	0
227	402230	670.00501	0
227	402617	670.01001	0
227	402926	670.01501	0
227	403535	670.02001	0
227	403619	670.02501	0
227	404880	670.074532106196	0
227	404957	670.079532106196	0
227	405352	671.00501	0
227	405657	671.01001	0
227	405991	671.01501	0
227	406417	671.02001	0
227	406725	671.02501	0
227	406726	671.03001	0
227	407159	671.050604081265	0
227	407313	671.055604081265	0
227	407636	671.079612105638	0
227	407941	671.084612105638	0
227	407942	671.089612105638	0
227	408371	672.00501	0
227	408674	672.01001	0
227	408981	672.01501	0
227	409273	672.02001	0
227	409274	672.02501	0
227	409714	673.00501	0
227	410025	673.01001	0
227	410395	673.01501	0
227	411000	673.02001	0
227	411243	673.02501	0
227	411546	673.03001	0
227	411547	673.03501	0
227	477953	1270.00501	0
227	478277	1270.01001	0
227	478495	1270.01501	0
227	478805	1270.02001	0
227	479328	1270.02501	0
227	479329	1270.03001	0
227	479700	1270.053164106196	0
227	479933	1270.058164106196	0
227	479934	1270.063164106196	0
227	480329	1271.00501	0
227	480631	1271.01001	0
227	480962	1271.01501	0
227	481181	1271.02001	0
227	481577	1271.02501	0
227	481793	1271.03001	0
227	482194	1271.03501	0
227	482505	1271.04001	0
227	482506	1271.04501	0
227	482788	1272.00501	0
227	483089	1272.01001	0
227	483545	1272.01501	0
227	483837	1272.02001	0
227	483838	1272.02501	0
227	484275	1273.00501	0
227	484586	1273.01001	0
227	484902	1273.01501	0
227	485217	1273.02001	0
227	485577	1273.02501	0
227	485820	1273.03001	0
227	486123	1273.03501	0
227	486124	1273.04001	0
227	552584	1870.00501	0
227	552914	1870.01001	0
227	553223	1870.01501	0
227	553598	1870.02001	0
227	553908	1870.02501	0
227	554435	1870.03001	0
227	554436	1870.03501	0
227	554834	1871.00501	0
227	555139	1871.01001	0
227	555470	1871.01501	0
227	555836	1871.02001	0
227	556390	1871.02501	0
227	557009	1871.03001	0
227	557010	1871.03501	0
227	557292	1872.00501	0
227	557503	1872.01001	0
227	558049	1872.015276009599	0
227	558341	1872.020276009599	0
227	558342	1872.025276009599	0
227	558632	1873.00501	0
227	559090	1873.01001	0
227	559399	1873.01501	0
227	559842	1873.02001	0
227	560134	1873.02501	0
227	560135	1873.03001	0
227	560662	1873.047444060482	0
227	560746	1873.052444060482	0
227	627152	2470.00501	0
227	627479	2470.01001	0
227	627794	2470.01501	0
227	628448	2470.02001	0
227	628525	2470.02501	0
227	628896	2470.048684106196	0
227	629129	2470.053684106196	0
227	629130	2470.058684106196	0
227	629525	2471.00501	0
227	629833	2471.01001	0
227	630161	2471.01501	0
227	630467	2471.02001	0
227	630836	2471.02501	0
227	631300	2471.03001	0
227	631700	2471.03501	0
227	631701	2471.04001	0
227	632133	2472.00501	0
227	632436	2472.01001	0
227	632803	2472.01501	0
227	633032	2472.02001	0
227	633033	2472.02501	0
227	633470	2473.00501	0
227	633781	2473.01001	0
227	634094	2473.01501	0
227	634594	2473.02001	0
227	635056	2473.02501	0
227	635140	2473.03001	0
227	635741	2473.048332053855	0
227	635742	2473.053332053855	0
227	701996	3070.00501	0
227	702478	3070.01001	0
227	702787	3070.01501	0
227	703162	3070.02001	0
227	703705	3070.02501	0
227	704001	3070.03001	0
227	704002	3070.03501	0
227	704317	3071.00501	0
227	704702	3071.01001	0
227	705030	3071.01501	0
227	705037	3071.02001	0
227	705646	3071.027036056637	0
227	706024	3071.032036056637	0
227	706576	3071.037036056637	0
227	706577	3071.042036056637	0
227	707006	3072.00501	0