version 2
run AODVScenario_1d-0-20121001-16:50:50-3916
attr configname AODVScenario_1d
attr datetime 20121001-16:50:50
attr experiment AODVScenario_1d
attr inifile omnetpp.ini
attr iterationvars ""
attr iterationvars2 $repetition=0
attr measurement ""
attr network csma802154net
attr processid 3916
attr repetition 0
attr replication #0
attr resultdir results
attr runnumber 0
attr seedset 0

vector 386  csma802154net.dataCentricNetworkMan  RREQPacketFrequency  ETV
vector 387  csma802154net.dataCentricNetworkMan  DiscoveryPacketFrequency  ETV
vector 388  csma802154net.dataCentricNetworkMan  RegisterPacketFrequency  ETV
vector 389  csma802154net.dataCentricNetworkMan  RReplyPacketFrequency  ETV
vector 390  csma802154net.dataCentricNetworkMan  AODVDataPacketFrequency  ETV
vector 398  csma802154net.fixhost[6].udpApp  "End-to-end delay"  ETV
vector 383  csma802154net.dataCentricNetworkMan  dataPacketE2EDelay  ETV
vector 412  csma802154net.fixhost[20].udpApp  "End-to-end delay"  ETV
vector 401  csma802154net.fixhost[9].udpApp  "End-to-end delay"  ETV
vector 403  csma802154net.fixhost[11].udpApp  "End-to-end delay"  ETV
383	612203	20.042876037286	0.042876037286
383	612922	20.066804068295	0.066804068295
383	616675	21.040636043737	0.040636043737
383	624723	22.10082807867	0.10082807867
386	1135	2.005	1
386	1276	2.01	0
386	2004	2.038586446663	118
386	2139	2.043586446663	0
386	2716	2.068196933054	0
386	2854	2.073196933054	0
386	3433	2.090854953933	0
386	3571	2.095854953933	0
386	4413	3.005	1
386	4545	3.01	0
386	5432	3.034481908346	94
386	5433	3.039481908346	0
386	8033	3.24501	1
386	8038	3.25001	0
386	9887	3.288612380386	186
386	10540	3.293612380386	0
386	14787	3.336892874626	9
386	14846	3.341892874626	0
386	16108	3.361689028416	40
386	16245	3.366689028416	0
386	17595	3.386377369489	73
386	17758	3.391377369489	0
386	19061	3.411197914327	40
386	19118	3.416197914327	0
386	20455	3.435813517045	92
386	20534	3.440813517045	0
386	22108	3.460572640666	50
386	22161	3.465572640666	0
386	23852	3.485984735865	16
386	23874	3.490984735865	0
386	25355	3.510712945593	34
386	25374	3.515712945593	0
386	26799	3.535709514204	63
386	26850	3.540709514204	0
386	28196	3.562652864002	13
386	28234	3.567652864002	0
386	29365	3.588108352082	35
386	29533	3.593108352082	0
386	30625	3.616561060578	61
386	30645	3.621561060578	0
386	31689	3.640944821817	55
386	31710	3.645944821817	0
386	31919	3.65828056235	8
386	32170	3.66328056235	6
386	32583	3.66828056235	0
386	33466	3.692805409516	63
386	33697	3.697805409516	0
386	34002	3.708442774421	8
386	34326	3.713442774421	24
386	34351	3.718442774421	0
386	35055	3.724063278797	49
386	35184	3.729063278797	0
386	36156	3.74837573933	9
386	36195	3.75337573933	0
386	36479	3.76534584606	16
386	37459	3.77034584606	67
386	37618	3.77534584606	0
386	39241	3.798172617737	31
386	39332	3.803172617737	0
386	40608	3.822691453198	52
386	40875	3.827691453198	0
386	42120	3.847578693971	96
386	42706	3.852578693971	0
386	44067	3.872217837146	62
386	44330	3.877217837146	12
386	44415	3.882217837146	0
386	45771	3.899493539344	60
386	45851	3.904493539344	0
386	47081	3.924086734246	6
386	47126	3.929086734246	0
386	47394	3.934667090357	14
386	47426	3.939667090357	0
386	48250	3.949419124082	30
386	48297	3.954419124082	0
386	49509	3.974315965138	71
386	49565	3.979315965138	0
386	50860	4.001662341618	60
386	51015	4.006662341618	0
386	51956	4.027005008698	45
386	52155	4.032005008698	8
386	52410	4.037005008698	8
386	52582	4.042005008698	0
386	53250	4.051374159856	30
386	53288	4.056374159856	0
386	53767	4.066076648085	27
386	53927	4.071076648085	0
386	54458	4.088115156991	22
386	54831	4.093115156991	14
386	54989	4.098115156991	0
386	55751	4.11753553082	53
386	56045	4.12253553082	23
386	56067	4.12753553082	0
386	56839	4.141968706452	34
386	56853	4.146968706452	0
386	57709	4.166680780368	73
386	57723	4.171680780368	0
386	58717	4.191862806443	113
386	58719	4.196862806443	0
386	58734	4.20501	1
386	58743	4.21001	0
386	59332	4.217543585139	55
386	59468	4.222543585139	0
386	60108	4.24501	69
386	60122	4.25001	0
386	61161	4.282880359674	90
386	61163	4.287880359674	0
386	61792	4.307288890605	0
386	61796	4.312288890605	0
386	63344	4.344416893932	90
386	63630	4.349416893932	0
386	65400	4.371533666656	39
386	65525	4.376533666656	0
386	66907	4.396629520157	21
386	67004	4.401629520157	0
386	68345	4.421087197246	45
386	68520	4.426087197246	0
386	69978	4.446973982568	65
386	70106	4.451973982568	0
386	71388	4.472416768554	80
386	71426	4.477416768554	0
386	72736	4.49663199572	54
386	72942	4.50163199572	0
386	73283	4.508322551365	12
386	73348	4.513322551365	0
386	74309	4.522626545007	38
386	74643	4.527626545007	0
386	75972	4.547580828301	35
386	76166	4.552580828301	0
386	77365	4.57262167406	57
386	77545	4.57762167406	0
386	78692	4.59868196573	76
386	79151	4.60368196573	0
386	80447	4.624990398924	41
386	80618	4.629990398924	0
386	80716	4.64501	1
386	81485	4.65001	58
386	81883	4.65501	13
386	81920	4.66001	0
386	83061	4.67816328539	89
386	83096	4.68316328539	0
386	84062	4.704059518263	14
386	84106	4.709059518263	0
386	84386	4.718774145193	18
386	84851	4.723774145193	25
386	85174	4.728774145193	5
386	85205	4.733774145193	0
386	85548	4.748508829053	24
386	86163	4.753508829053	63
386	86196	4.758508829053	0
386	87440	4.778807975512	117
386	87468	4.783807975512	0
386	88415	4.80324170724	54
386	88435	4.80824170724	0
386	89262	4.828208914308	0
386	89289	4.833208914308	0
386	89779	4.852492387246	22
386	89801	4.857492387246	0
386	90451	4.866323985208	41
386	90465	4.871323985208	0
386	90785	4.88664913922	24
386	91298	4.89164913922	46
386	91307	4.89664913922	0
386	92022	4.918754986299	45
386	92322	4.923754986299	33
386	92341	4.928754986299	0
386	92865	4.945369802277	62
386	93124	4.950369802277	0
386	93746	4.97469744588	19
386	93758	4.97969744588	0
386	95429	5.001735701305	170
386	95937	5.006735701305	0
386	97771	5.027716089127	18
386	97869	5.032716089127	0
386	99530	5.052144140125	29
386	99691	5.057144140125	0
386	101254	5.077372021292	9
386	101299	5.082372021292	0
386	102401	5.102314362613	47
386	102481	5.107314362613	0
386	103830	5.127863334354	103
386	103993	5.132863334354	0
386	104613	5.142380903636	4
386	104682	5.147380903636	0
386	106106	5.166612710573	33
386	106178	5.171612710573	0
386	106517	5.180062689527	18
386	106552	5.185062689527	0
386	107445	5.191696616858	28
386	107492	5.196696616858	0
386	107582	5.20501	1
386	107637	5.21001	0
386	108470	5.217177836854	4
386	108505	5.222177836854	0
386	109787	5.242221048663	82
386	109829	5.247221048663	0
386	110985	5.266993052875	21
386	111041	5.271993052875	0
386	111271	5.282323537447	9
386	111415	5.287323537447	0
386	112029	5.293353903115	17
386	112044	5.298353903115	0
386	113274	5.317837601849	82
386	113305	5.322837601849	0
386	114431	5.342102769184	51
386	114463	5.347102769184	0
386	115609	5.366759893441	79
386	115627	5.371759893441	0
386	116975	5.391787753848	50
386	117115	5.396787753848	0
386	118322	5.419325799545	21
386	118360	5.424325799545	0
386	119111	5.444903922525	11
386	119123	5.449903922525	0
386	119557	5.45586269286	30
386	119655	5.46086269286	0
386	120474	5.469642138935	58
386	120525	5.474642138935	0
386	120966	5.482223709835	29
386	121032	5.487223709835	0
386	121648	5.497187419017	14
386	121669	5.502187419017	0
386	122085	5.51073204586	16
386	122117	5.51573204586	0
386	122659	5.522792744346	44
386	122685	5.527792744346	0
386	123128	5.535203457437	25
386	123174	5.540203457437	0
386	123843	5.547594429614	72
386	124075	5.552594429614	0
386	124866	5.561319895427	45
386	125010	5.566319895427	0
386	125535	5.573189065986	17
386	125842	5.578189065986	21
386	126415	5.583189065986	40
386	126692	5.588189065986	0
386	127080	5.593189065986	30
386	127155	5.598189065986	0
386	128060	5.610049896546	42
386	128295	5.615049896546	0
386	128699	5.62955303618	23
386	129009	5.63455303618	17
386	129672	5.63955303618	17
386	129724	5.64455303618	0
386	131060	5.667935119813	21
386	131149	5.672935119813	0
386	131672	5.679958356256	12
386	132160	5.684958356256	2
386	132346	5.689958356256	0
386	132948	5.704364524984	12
386	133149	5.709364524984	0
386	133460	5.714426162791	21
386	133506	5.719426162791	0
386	134441	5.736377450324	11
386	134462	5.741377450324	0
386	135206	5.752428164092	51
386	135533	5.757428164092	1
386	135704	5.762428164092	0
386	136312	5.777150338529	9
386	136333	5.782150338529	0
386	136891	5.790143819769	20
386	136927	5.795143819769	0
386	137493	5.80375711973	43
386	137517	5.80875711973	0
386	138201	5.816365731814	17
386	138234	5.821365731814	0
386	138449	5.82665968108	0
386	138468	5.83165968108	0
386	139123	5.842479386771	3
386	139353	5.847479386771	0
386	139952	5.867562301933	27
386	139997	5.872562301933	0
386	140553	5.880256591692	0
386	140710	5.885256591692	0
386	141201	5.893121071612	36
386	141235	5.898121071612	0
386	141775	5.909704611952	0
386	141799	5.914704611952	0
386	142482	5.919720145796	53
386	142499	5.924720145796	0
386	143449	5.944223791624	73
386	143475	5.949223791624	0
386	143975	5.963970622082	0
386	144515	5.968970622082	44
386	144653	5.973970622082	0
386	145739	5.998271679398	53
386	146010	6.003271679398	1
386	146023	6.008271679398	0
386	146607	6.025361983962	35
386	146612	6.030361983962	0
386	146916	6.039559142476	26
386	147231	6.044559142476	0
386	147880	6.070808938935	0
386	148018	6.075808938935	0
386	148753	6.10057697102	0
386	148757	6.10557697102	0
386	149785	6.147616948184	7
386	150139	6.152616948184	0
386	150673	6.175264929342	0
386	150683	6.180264929342	0
386	151438	6.207330206147	0
386	151709	6.212330206147	0
386	152246	6.237136957804	0
386	152503	6.242136957804	1
386	152771	6.247136957804	0
386	153818	6.272938566871	82
386	154085	6.277938566871	0
386	155354	6.296010226709	0
386	155655	6.301010226709	0
386	157560	6.345849160062	74
386	157797	6.350849160062	0
386	159143	6.370741532919	91
386	159230	6.375741532919	0
386	160684	6.395337011894	81
386	160773	6.400337011894	0
386	162361	6.419812443253	44
386	162389	6.424812443253	0
386	164599	6.472629204145	65
386	164659	6.477629204145	0
386	165469	6.49825609107	12
386	165517	6.50325609107	0
386	166554	6.522734245558	61
386	166600	6.527734245558	0
386	167583	6.54762125152	64
386	167762	6.55262125152	0
386	168718	6.574392226509	7
386	168886	6.579392226509	3
386	168895	6.584392226509	0
386	169773	6.598732603375	40
386	169806	6.603732603375	0
386	170741	6.623708495424	120
386	170758	6.628708495424	0
386	171322	6.64501	1
386	171671	6.65001	0
386	172099	6.658980952391	26
386	172126	6.663980952391	0
386	172582	6.678504063449	19
386	172925	6.683504063449	40
386	172940	6.688504063449	0
386	173372	6.706688463269	20
386	173382	6.711688463269	0
386	174062	6.7176405032	53
386	174064	6.7226405032	0
386	175266	6.743318341297	82
386	175526	6.748318341297	0
386	176781	6.770371706345	35
386	176851	6.775371706345	0
386	177660	6.795594860657	21
386	177706	6.800594860657	0
386	179192	6.81933940962	142
386	179586	6.82433940962	0
386	181618	6.845254480005	51
386	181747	6.850254480005	0
386	183340	6.869533835116	43
386	183397	6.874533835116	0
386	184858	6.894156361684	45
386	184897	6.899156361684	0
386	184937	6.904156361684	0
386	185885	6.918674818249	19
386	186193	6.923674818249	0
386	187157	6.945168389971	35
386	187321	6.950168389971	0
386	188093	6.969714205704	30
386	188424	6.974714205704	28
386	188650	6.979714205704	0
386	188744	6.984714205704	0
386	189657	6.994957847423	47
386	190015	6.999957847423	32
386	190432	7.004957847423	1
386	190491	7.009957847423	0
386	191278	7.02292645545	18
386	191629	7.02792645545	31
386	191681	7.03292645545	0
386	192688	7.047587024681	39
386	192726	7.052587024681	0
386	193263	7.062870771224	0
386	193312	7.067870771224	0
386	194313	7.074229586004	29
386	194344	7.079229586004	0
386	195410	7.099517890485	14
386	195570	7.104517890485	0
386	196454	7.124405923822	28
386	196771	7.129405923822	0
386	197978	7.158028287843	19
386	198151	7.163028287843	0
386	198819	7.183287726637	24
386	198833	7.188287726637	0
386	199705	7.194382814144	30
386	199714	7.199382814144	0
386	200246	7.211360805671	0
386	200701	7.216360805671	2
386	200725	7.221360805671	0
386	201337	7.24501	1
386	201542	7.25001	0
386	202195	7.26471802378	1
386	202202	7.26971802378	0
386	203592	7.317386743439	40
386	203603	7.322386743439	0
386	204277	7.335278825534	0
386	204420	7.340278825534	0
386	206073	7.397259984662	0
386	206085	7.402259984662	0
386	206757	7.418680273035	0
386	206904	7.423680273035	0
386	208585	7.467456278364	0
386	208592	7.472456278364	0
386	209770	7.520840254119	0
386	210054	7.525840254119	0
386	210735	7.550354941211	0
386	211075	7.555354941211	0
386	211921	7.581752295022	0
386	211928	7.586752295022	0
386	213045	7.623040324723	0
386	213295	7.628040324723	0
386	213730	7.64501	1
386	213884	7.65001	0
386	214447	7.662720302094	0
386	214458	7.667720302094	0
386	215607	7.698248305478	82
386	215900	7.703248305478	0
386	217219	7.726162968953	64
386	217680	7.731162968953	0
386	218141	7.742168309166	0
386	218625	7.747168309166	0
386	219685	7.75792990066	12
386	219761	7.76292990066	0
386	220960	7.782557807621	3
386	221034	7.787557807621	0
386	222225	7.808234550782	49
386	222366	7.813234550782	0
386	222434	7.818234550782	0
386	223428	7.834010499779	47
386	223497	7.839010499779	0
386	224862	7.855247564475	89
386	225045	7.860247564475	0
386	225252	7.865247564475	0
386	227048	7.882839827437	21
386	227110	7.887839827437	0
386	228625	7.907447668371	3
386	228686	7.912447668371	0
386	230090	7.932487696884	50
386	230146	7.937487696884	0
386	231502	7.957116786013	38
386	231549	7.962116786013	0
386	232680	7.981463175228	51
386	232734	7.986463175228	0
386	233858	8.005	52
386	234460	8.01	0
386	235778	8.033772440577	30
386	236398	8.038772440577	0
386	237147	8.058826623726	39
386	238054	8.063826623726	11
386	238077	8.068826623726	0
386	238591	8.08506358574	10
386	239457	8.09006358574	11
386	239479	8.09506358574	0
386	240407	8.115367227053	50
386	240425	8.120367227053	0
386	241235	8.142839879369	91
386	241379	8.147839879369	0
386	242231	8.175337145988	0
386	242550	8.180337145988	0
386	243283	8.202992289854	0
386	243433	8.207992289854	0
386	243964	8.24501	1
386	243980	8.25001	0
386	244604	8.264564063018	0
386	244742	8.269564063018	0
386	245963	8.316980088839	0
386	246107	8.321980088839	0
386	246741	8.345532075294	0
386	246880	8.350532075294	0
386	247598	8.373917164117	0
386	247744	8.378917164117	0
386	248635	8.429872278101	0
386	248777	8.434872278101	0
386	248964	8.44237693893	0
386	249101	8.44737693893	0
386	249622	8.469710917625	0
386	249627	8.474710917625	0
386	252456	8.541432325038	0
386	252725	8.546432325038	0
386	254004	8.600589212933	0
386	254009	8.605589212933	0
386	254412	8.64501	1
386	255753	8.65001	159
386	256289	8.65501	0
386	256587	8.66001	0
386	258448	8.676434440255	28
386	258557	8.681434440255	0
386	260309	8.700790895759	36
386	260454	8.705790895759	0
386	261728	8.725856741823	6
386	261805	8.730856741823	0
386	262795	8.748130554215	16
386	263310	8.753130554215	0
386	264557	8.777352897069	61
386	264735	8.782352897069	0
386	265405	8.802760212639	16
386	266040	8.807760212639	34
386	266093	8.812760212639	0
386	266809	8.832840724046	3
386	266844	8.837840724046	0
386	267579	8.853555264278	0
386	267613	8.858555264278	0
386	268241	8.868369387941	1
386	268476	8.873369387941	0
386	269375	8.893235695551	4
386	270037	8.898235695551	0
386	271280	8.922833385848	70
386	271339	8.927833385848	0
386	272503	8.948684524669	14
386	272541	8.953684524669	0
386	273623	8.971664481252	14
386	273860	8.976664481252	0
386	274519	8.998632288309	25
386	275241	9.003632288309	0
386	276510	9.029732673295	90
386	276634	9.034732673295	0
386	276755	9.039732673295	0
386	277623	9.055567885642	32
386	277659	9.060567885642	0
386	278175	9.074983730635	26
386	278694	9.079983730635	37
386	278772	9.084983730635	0
386	280421	9.105583237967	166
386	280811	9.110583237967	0
386	282975	9.130912556918	3
386	283367	9.135912556918	0
386	284753	9.155270051717	6
386	285133	9.160270051717	0
386	286046	9.181907212876	69
386	286501	9.186907212876	0
386	287471	9.20642656352	20
386	287962	9.21142656352	0
386	289199	9.232601354737	49
386	289391	9.237601354737	0
386	290329	9.257787000116	54
386	290489	9.262787000116	0
386	291652	9.286601963006	72
386	292059	9.291601963006	18
386	292089	9.296601963006	0
386	293135	9.31106087427	37
386	293425	9.31606087427	17
386	293517	9.32106087427	0
386	294614	9.335666121354	19
386	294655	9.340666121354	0
386	295749	9.360832970863	34
386	295791	9.365832970863	0
386	297210	9.385541889339	88
386	297234	9.390541889339	0
386	298274	9.410610434209	8
386	298311	9.415610434209	0
386	299046	9.433560204018	0
386	299775	9.438560204018	9
386	299819	9.443560204018	0
386	300797	9.465037009561	1
386	300821	9.470037009561	0
386	301788	9.488072226171	9
386	301932	9.493072226171	0
386	303045	9.538702459851	50
386	303324	9.543702459851	0
386	304130	9.567924232537	1
386	304147	9.572924232537	0
386	305018	9.589278173766	0
386	305360	9.594278173766	0
386	305500	9.599278173766	0
386	306558	9.644342979286	0
386	306851	9.649342979286	0
386	307140	9.654342979286	0
386	307153	9.659342979286	0
386	307860	9.669920300128	0
386	308163	9.674920300128	0
386	310105	9.731696348023	0
386	310256	9.736696348023	0
386	312756	9.815176297542	0
386	313035	9.820176297542	0
386	314235	9.868093192639	0
386	314592	9.873093192639	0
386	315845	9.922056308452	0
386	316212	9.927056308452	0
386	317393	9.96180657691	0
386	317559	9.96680657691	0
386	318557	9.991574587716	0
386	318569	9.996574587716	0
386	318969	10.005	1
386	319116	10.01	0
386	320440	10.038356396725	22
386	320922	10.043356396725	0
386	321932	10.063366299562	0
386	322302	10.068366299562	0
386	323109	10.086654305413	0
386	323461	10.091654305413	0
386	325067	10.13840830195	0
386	325531	10.14340830195	0
386	328362	10.220224317254	0
386	328833	10.225224317254	0
386	329059	10.230224317254	0
386	330148	10.274226377254	0
386	330290	10.279226377254	0
386	331152	10.305274398133	0
386	331164	10.310274398133	0
386	332161	10.341502193627	0
386	332165	10.346502193627	0
386	332748	10.365504336062	0
386	333025	10.370504336062	0
386	333722	10.393754061649	0
386	334099	10.398754061649	0
386	335229	10.43214231842	0
386	335415	10.43714231842	0
386	335681	10.44214231842	0
386	336422	10.464418339179	0
386	336695	10.469418339179	0
386	337186	10.487038344436	0
386	337534	10.492038344436	0
386	338197	10.515910233971	0
386	338417	10.520910233971	0
386	339385	10.555374252703	0
386	339392	10.560374252703	0
386	341973	10.656840350244	0
386	341978	10.661840350244	0
386	342552	10.674392302245	0
386	342690	10.679392302245	0
386	343296	10.705278357859	0
386	343300	10.710278357859	0
386	344033	10.740806394313	0
386	344171	10.745806394313	0
386	344782	10.769934430767	0
386	344920	10.774934430767	0
386	345644	10.800662464751	0
386	345649	10.805662464751	0
386	348049	10.909842330298	0
386	348187	10.914842330298	0
386	348818	10.940570344815	0
386	348958	10.945570344815	0
386	349590	10.969698355725	0
386	349594	10.974698355725	0
386	350034	11.005	1
386	350404	11.01	0
386	350659	11.015	0
386	351400	11.048792345801	0
386	351557	11.053792345801	0
386	352194	11.079200379935	0
386	352336	11.084200379935	0
386	352844	11.108648395239	0
386	352845	11.113648395239	0
386	353326	11.122162369638	0
386	353331	11.127162369638	0
386	354174	11.133878493471	0
386	354450	11.138878493471	0
386	355347	11.161800414068	0
386	355355	11.166800414068	0
386	355942	11.188710527283	0
386	356077	11.193710527283	0
386	356959	11.234478541469	0
386	357098	11.239478541469	0
386	357100	11.24501	1
386	357107	11.25001	0
386	358960	11.313809009832	94
386	359018	11.318809009832	0
386	360560	11.361536070516	0
386	360573	11.366536070516	0
386	361285	11.385240340581	0
386	361668	11.390240340581	0
386	362683	11.418609009832	72
386	362938	11.423609009832	0
386	365167	11.445006046694	176
386	365647	11.450006046694	0
386	367363	11.469317062254	5
386	367476	11.474317062254	0
386	368907	11.493562285467	33
386	369147	11.498562285467	0
386	370105	11.517916593989	8
386	370418	11.522916593989	0
386	371218	11.543896257569	43
386	372179	11.548896257569	23
386	372225	11.553896257569	0
386	373658	11.576600928031	4
386	373703	11.581600928031	0
386	374697	11.596999319781	34
386	375326	11.601999319781	6
386	375367	11.606999319781	0
386	376447	11.627135115794	2
386	376651	11.632135115794	0
386	376829	11.64501	1
386	377527	11.65001	0
386	378700	11.676891664323	61
386	378750	11.681891664323	0
386	378988	11.688485791181	9
386	379180	11.693485791181	0
386	380886	11.721937111468	8
386	381383	11.726937111468	0
386	383130	11.772843929589	0
386	383162	11.777843929589	0
386	383651	11.78366781932	0
386	383940	11.78866781932	0
386	384684	11.800722806257	73
386	384964	11.805722806257	0
386	385879	11.814458782008	12
386	386688	11.819458782008	0
386	387748	11.839991328982	0
386	388113	11.844991328982	0
386	389413	11.871606019822	0
386	389455	11.876606019822	0
386	390061	11.882099151882	19
386	390741	11.887099151882	0
386	391601	11.911223052438	2
386	392208	11.916223052438	3
386	392417	11.921223052438	0
386	393516	11.941855262139	39
386	393650	11.946855262139	0
386	394996	11.964961533953	0
386	395210	11.969961533953	0
386	396162	11.989389666298	11
386	396639	11.994389666298	0
386	397017	12.005	0
386	397032	12.01	0
386	397898	12.018073497475	53
386	398315	12.023073497475	0
386	399662	12.047757276694	21
386	399729	12.052757276694	0
386	400328	12.06676972411	25
386	401114	12.07176972411	41
386	401167	12.07676972411	0
386	401613	12.09126038125	18
386	402456	12.09626038125	27
386	402535	12.10126038125	0
386	403852	12.121354942661	48
386	404066	12.126354942661	0
386	404118	12.131354942661	0
386	404362	12.13896229677	7
386	404862	12.14396229677	0
386	405684	12.166482751684	0
386	406316	12.171482751684	0
386	406881	12.176482751684	0
386	408123	12.200888057149	22
386	408158	12.205888057149	0
386	408387	12.213905540957	7
386	408413	12.218905540957	0
386	409514	12.22545925302	10
386	409557	12.23045925302	0
386	411169	12.273738833877	0
386	411697	12.278738833877	0
386	412622	12.302630846571	11
386	412932	12.307630846571	0
386	414554	12.351364196851	66
386	414741	12.356364196851	0
386	415480	12.377322825137	0
386	415675	12.382322825137	0
386	416730	12.412923831714	0
386	416822	12.417923831714	0
386	419003	12.453465535032	0
386	419047	12.458465535032	0
386	420695	12.492459967826	0
386	420851	12.497459967826	0
386	422112	12.534273557672	0
386	422403	12.539273557672	0
386	425561	12.639514689731	0
386	425701	12.644514689731	0
386	426412	12.667314846887	0
386	426421	12.672314846887	0
386	427363	12.691585517599	0
386	427380	12.696585517599	0
386	428557	12.738734287112	0
386	428712	12.743734287112	0
386	429486	12.765346851731	0
386	429642	12.770346851731	0
386	431179	12.793254006826	0
386	431187	12.798254006826	0
386	431876	12.815738850953	0
386	432198	12.820738850953	0
386	434933	12.895406030871	0
386	434963	12.900406030871	0
386	437622	12.988075933083	0
386	437786	12.993075933083	0
386	439526	13.02846783346	0
386	439537	13.03346783346	0
386	441189	13.0665558504	0
386	441707	13.0715558504	0
386	445146	13.177945533948	0
386	445159	13.182945533948	0
386	450707	13.339427895489	0
386	450847	13.344427895489	0
386	454124	13.433355961938	0
386	454262	13.438355961938	0
386	455830	13.491882840601	0
386	455834	13.496882840601	0
386	457795	13.553139918902	0
386	457960	13.558139918902	0
386	460661	13.641703731028	0
386	460983	13.646703731028	0
386	461482	13.651703731028	0
386	462349	13.676435517716	0
386	462560	13.681435517716	0
386	464403	13.736675983313	0
386	464547	13.741675983313	0
386	465565	13.764434339835	0
386	465735	13.769434339835	0
386	467932	13.817809535024	0
386	468078	13.822809535024	0
386	468969	13.847851974755	0
386	469111	13.852851974755	0
386	469638	13.866441779946	0
386	469661	13.871441779946	0
386	470458	13.877121561039	0
386	470465	13.882121561039	0
386	471301	13.925377585974	0
386	471312	13.930377585974	0
386	472778	13.965272070512	0
386	472795	13.970272070512	0
386	474389	14.005	0
386	474399	14.01	0
386	475440	14.04298799295	0
386	475447	14.04798799295	0
386	475785	14.057900008453	0
386	475816	14.062900008453	0
386	477362	14.110865572413	0
386	477540	14.115865572413	0
386	479554	14.165250350115	0
386	479709	14.170250350115	0
386	481827	14.225666370994	0
386	481965	14.230666370994	0
386	483801	14.291378398792	0
386	484088	14.296378398792	0
386	485394	14.354778426589	0
386	485398	14.359778426589	0
386	491052	14.586900051609	0
386	491057	14.591900051609	0
386	492508	14.639178407073	0
386	492647	14.644178407073	0
386	497404	14.831885828099	0
386	497536	14.836885828099	0
386	501720	14.991722435293	0
386	501727	14.996722435293	0
386	502216	15.005	0
386	502229	15.01	0
386	503284	15.058883918897	0
386	503289	15.063883918897	0
386	504578	15.100316015304	0
386	504720	15.105316015304	0
386	505457	15.122964028559	0
386	505598	15.127964028559	0
386	505843	15.138340041178	0
386	506131	15.143340041178	0
386	507144	15.174386406525	0
386	507285	15.179386406525	0
386	509081	15.247546446957	0
386	509092	15.252546446957	0
386	510661	15.310460427401	1
386	510812	15.315460427401	0
386	511232	15.34163442766	0
386	511656	15.34663442766	0
386	511852	15.35163442766	0
386	512575	15.370780801179	46
386	512906	15.375780801179	0
386	514578	15.42753038425	0
386	514591	15.43253038425	0
386	515238	15.442784975519	23
386	515679	15.447784975519	0
386	518207	15.504911577726	141
386	518640	15.509911577726	0
386	520376	15.531098677667	67
386	520445	15.536098677667	0
386	521731	15.555544426323	62
386	521967	15.560544426323	0
386	523130	15.580149735404	39
386	523426	15.585149735404	7
386	523611	15.590149735404	0
386	525009	15.605006061058	28
386	525109	15.610006061058	0
386	525381	15.615271530782	11
386	525447	15.620271530782	0
386	526739	15.629820274063	8
386	526952	15.634820274063	0
386	528223	15.656098143273	14
386	528374	15.661098143273	0
386	529109	15.68015410956	2
386	529587	15.68515410956	33
386	529633	15.69015410956	0
386	530778	15.706427561394	93
386	530875	15.711427561394	0
386	531748	15.732838565177	23
386	531786	15.737838565177	0
386	532376	15.754132727158	33
386	533028	15.759132727158	43
386	533061	15.764132727158	0
386	534128	15.780765732367	76
386	534314	15.785765732367	0
386	535410	15.808373412	41
386	535579	15.813373412	0
386	536001	15.829981423567	0
386	536524	15.834981423567	0
386	536784	15.841070753247	17
386	536814	15.846070753247	0
386	537510	15.860816757621	12
386	537527	15.865816757621	0
386	538681	15.886564842319	27
386	538717	15.891564842319	0
386	539448	15.910827405939	76
386	539741	15.915827405939	0
386	540603	15.941505027284	64
386	540616	15.946505027284	0
386	541475	15.967224566735	113
386	541480	15.972224566735	0
386	542357	15.993583309143	116
386	542369	15.998583309143	0
386	542634	16.005	0
386	542642	16.01	0
386	543515	16.021311256454	115
386	543528	16.026311256454	1
386	543544	16.031311256454	0
386	545084	16.072463825554	104
386	545089	16.077463825554	0
386	545670	16.097732045386	57
386	545679	16.102732045386	0
386	546515	16.115694313448	36
386	546619	16.120694313448	0
386	547586	16.143732849035	17
386	547668	16.148732849035	0
386	548998	16.169763091372	139
386	549384	16.174763091372	0
386	551006	16.194890540664	50
386	551184	16.199890540664	0
386	552611	16.219949839997	50
386	552727	16.224949839997	0
386	553944	16.244582401843	27
386	553986	16.249582401843	0
386	555301	16.270656517152	26
386	555326	16.275656517152	0
386	556536	16.295361938424	10
386	556590	16.300361938424	0
386	557975	16.321884419396	64
386	558085	16.326884419396	0
386	559354	16.346124015438	58
386	559519	16.351124015438	0
386	560544	16.372574760475	43
386	560738	16.377574760475	0
386	561620	16.397178633224	69
386	562206	16.402178633224	22
386	562242	16.407178633224	0
386	562986	16.421930835974	34
386	563387	16.426930835974	15
386	563414	16.431930835974	0
386	564341	16.448620841516	19
386	564364	16.453620841516	0
386	565053	16.469063466995	17
386	565345	16.474063466995	0
386	566455	16.498634210491	47
386	566475	16.503634210491	0
386	566708	16.510190831799	15
386	566735	16.515190831799	0
386	567399	16.525500992992	22
386	567562	16.530500992992	0
386	568041	16.551395787583	47
386	568299	16.556395787583	21
386	568571	16.561395787583	0
386	569295	16.585036823398	43
386	569297	16.590036823398	0
386	569959	16.609553433843	96
386	569963	16.614553433843	0
386	570836	16.644174625612	99
386	570837	16.649174625612	0
386	571581	16.680370629344	87
386	571756	16.685370629344	0
386	572484	16.712156630736	91
386	572530	16.717156630736	0
386	573149	16.739937046352	95
386	573164	16.744937046352	0
386	573436	16.749937046352	0
386	573441	16.754937046352	0
386	574238	16.774940083696	5
386	574242	16.779940083696	0
386	576144	17.703241359509	0
386	576149	17.708241359509	0
386	578261	18.270213561087	0
386	578262	18.275213561087	0
386	579004	18.446918874939	0
386	579005	18.451918874939	0
386	579907	18.990460427401	1
386	579908	18.995460427401	0
386	581069	19.018640173392	116
386	581505	19.023640173392	0
386	583229	19.044645994607	114
386	583709	19.049645994607	0
386	585193	19.068942339282	45
386	585616	19.073942339282	15
386	585713	19.078942339282	0
386	587175	19.096434396175	18
386	587350	19.101434396175	0
386	588645	19.1221881158	12
386	588716	19.1271881158	0
386	589977	19.14829281228	49
386	590010	19.15329281228	0
386	591239	19.172611719539	40
386	591279	19.177611719539	0
386	592420	19.196966841607	43
386	592505	19.201966841607	0
386	593611	19.22199711101	79
386	593682	19.22699711101	0
386	595097	19.246199003898	73
386	595177	19.251199003898	0
386	596707	19.270879906996	20
386	596748	19.275879906996	0
386	597914	19.29565640131	5
386	598081	19.30065640131	0
386	599004	19.320930139409	42
386	599159	19.325930139409	0
386	600368	19.348984668792	73
386	600394	19.353984668792	0
386	601489	19.37365475506	55
386	601496	19.37865475506	0
386	602606	19.399938200968	68
386	602617	19.404938200968	0
386	603438	19.424851419633	0
386	603828	19.429851419633	0
386	604273	19.451443464015	9
386	604416	19.456443464015	0
386	605248	19.480908585905	104
386	605387	19.485908585905	0
386	605993	19.505890222785	59
386	606210	19.510890222785	16
386	606219	19.515890222785	0
386	606902	19.533881367366	67