file 235998 1353024402                                          
version 2
run AODVScenario_1f-40-20121116-00:06:11-3640
attr configname AODVScenario_1f
attr datetime 20121116-00:06:11
attr experiment AODVScenario_1f
attr inifile AODV.ini
attr iterationvars $numNodes=90
attr iterationvars2 "$numNodes=90, $repetition=0"
attr measurement $numNodes=90
attr network csma802154net
attr numNodes 90
attr processid 3640
attr repetition 0
attr replication #0
attr resultdir results
attr runnumber 40
attr seedset 40

vector 371  csma802154net.dataCentricNetworkMan  RREQPacketFrequency  ETV
vector 372  csma802154net.dataCentricNetworkMan  RERRPacketFrequency  ETV
vector 373  csma802154net.dataCentricNetworkMan  DiscoveryPacketFrequency  ETV
vector 374  csma802154net.dataCentricNetworkMan  RegisterPacketFrequency  ETV
vector 375  csma802154net.dataCentricNetworkMan  RReplyPacketFrequency  ETV
vector 376  csma802154net.dataCentricNetworkMan  AODVDataPacketFrequency  ETV
vector 383  csma802154net.dataCentricNetworkMan  pendingRegistrationVector  ETV
vector 382  csma802154net.dataCentricNetworkMan  pendingRREQVector  ETV
vector 377  csma802154net.dataCentricNetworkMan  AODVDataLineBreakVector  ETV
vector 380  csma802154net.dataCentricNetworkMan  PendingDataPacketsVector  ETV
vector 395  csma802154net.fixhost[11].udpApp  "End-to-end delay"  ETV
vector 368  csma802154net.dataCentricNetworkMan  dataPacketE2EDelay  ETV
vector 404  csma802154net.fixhost[20].udpApp  "End-to-end delay"  ETV
vector 399  csma802154net.fixhost[15].udpApp  "End-to-end delay"  ETV
vector 389  csma802154net.fixhost[5].udpApp  "End-to-end delay"  ETV
vector 391  csma802154net.fixhost[7].udpApp  "End-to-end delay"  ETV
vector 402  csma802154net.fixhost[18].udpApp  "End-to-end delay"  ETV
vector 392  csma802154net.fixhost[8].udpApp  "End-to-end delay"  ETV
vector 398  csma802154net.fixhost[14].udpApp  "End-to-end delay"  ETV
vector 394  csma802154net.fixhost[10].udpApp  "End-to-end delay"  ETV
vector 386  csma802154net.fixhost[2].udpApp  "End-to-end delay"  ETV
vector 387  csma802154net.fixhost[3].udpApp  "End-to-end delay"  ETV
vector 393  csma802154net.fixhost[9].udpApp  "End-to-end delay"  ETV
368	2162 7046 858367 2325563 70.011836036798 7273.018836054107 156 0.006436017557 0.047844091175 2.907112975386 0.064243266325197
371	9208 34286 719 2325795 1.005 7273.02501 1200 0 119 3651 186717
372	43494 34193 719 2325795 1.005 7273.02501 1200 0 0 0 0
373	77687 34193 719 2325795 1.005 7273.02501 1200 0 0 0 0
374	111880 34193 719 2325795 1.005 7273.02501 1200 0 1 12 12
375	146073 34205 719 2325795 1.005 7273.02501 1200 0 95 1479 58991
376	180278 34208 719 2325795 1.005 7273.02501 1200 0 95 1133 53485
377	214486 30 245906 245906 45.781014548325 45.781014548325 1 1 1 1 1
380	214516 12737 857035 2325563 70 7273.018836054107 416 0 3 520 1040
382	227253 1113 30239 792594 43.50001 54.562029700341 40 0 1 14 14
383	228366 586 30234 853708 43.5 55.046153410019 24 0 1 12 12
386	228952 593 867575 2324617 73.007396017557 7273.009316017557 13 0.006436017557 0.010276017557 0.114388228239 0.0010217783045863
387	229545 593 868050 2325092 73.010876035749 7273.014716035749 13 0.010876035749 0.015356035749 0.174668464733 0.0023749093363128
389	230138 571 861008 2318515 71.01027602887 7271.00803602887 13 0.00643602887 0.01187602887 0.110228375308 0.00096382993254469
391	230709 585 862402 2319944 71.022676065341 7271.022924065341 13 0.01531606534 0.033412065341 0.290868849426 0.0068387501549531
392	231294 573 864960 2321998 72.02463603853 7272.012156038529 13 0.01119603853 0.02463603853 0.185548500887 0.0028006033062644
393	231867 593 868520 2325563 73.014676054107 7273.018836054107 13 0.014356054107 0.019796054107 0.227908703387 0.0040382603907224
394	232460 589 866415 2323457 72.038316078489 7272.027044078489 13 0.020716078491 0.038316078489 0.326941020377 0.0085237424113992
395	233049 593 858367 2315672 70.011836036798 7270.011516036798 13 0.011196036798 0.014716036798 0.16122847837 0.0020127250336556
398	233642 593 865926 2322968 72.033836091174 7272.021036091174 13 0.019756091175 0.047844091175 0.386957185269 0.012730065649234
399	234235 581 859842 2316858 70.02487607516 7270.021676075159 13 0.021356075159 0.029284075158 0.324092977071 0.008162567325122
402	234816 589 862848 2320390 71.025516084561 7271.028964084562 13 0.01783608456 0.028964084562 0.3005570993 0.0070466718390789
404	235405 593 859349 2317335 70.021036084078 7270.046884084078 13 0.019116084078 0.046884084078 0.303725093019 0.0077293626413235
