file 252507 1353025311                                          
version 2
run AODVScenario_1f-64-20121116-00:21:04-2248
attr configname AODVScenario_1f
attr datetime 20121116-00:21:04
attr experiment AODVScenario_1f
attr inifile AODV.ini
attr iterationvars $numNodes=114
attr iterationvars2 "$numNodes=114, $repetition=0"
attr measurement $numNodes=114
attr network csma802154net
attr numNodes 114
attr processid 2248
attr repetition 0
attr replication #0
attr resultdir results
attr runnumber 64
attr seedset 64

vector 467  csma802154net.dataCentricNetworkMan  RREQPacketFrequency  ETV
vector 468  csma802154net.dataCentricNetworkMan  RERRPacketFrequency  ETV
vector 469  csma802154net.dataCentricNetworkMan  DiscoveryPacketFrequency  ETV
vector 470  csma802154net.dataCentricNetworkMan  RegisterPacketFrequency  ETV
vector 471  csma802154net.dataCentricNetworkMan  RReplyPacketFrequency  ETV
vector 472  csma802154net.dataCentricNetworkMan  AODVDataPacketFrequency  ETV
vector 479  csma802154net.dataCentricNetworkMan  pendingRegistrationVector  ETV
vector 478  csma802154net.dataCentricNetworkMan  pendingRREQVector  ETV
vector 473  csma802154net.dataCentricNetworkMan  AODVDataLineBreakVector  ETV
vector 476  csma802154net.dataCentricNetworkMan  PendingDataPacketsVector  ETV
vector 499  csma802154net.fixhost[19].udpApp  "End-to-end delay"  ETV
vector 464  csma802154net.dataCentricNetworkMan  dataPacketE2EDelay  ETV
vector 492  csma802154net.fixhost[12].udpApp  "End-to-end delay"  ETV
vector 501  csma802154net.fixhost[21].udpApp  "End-to-end delay"  ETV
vector 487  csma802154net.fixhost[7].udpApp  "End-to-end delay"  ETV
vector 483  csma802154net.fixhost[3].udpApp  "End-to-end delay"  ETV
vector 497  csma802154net.fixhost[17].udpApp  "End-to-end delay"  ETV
vector 486  csma802154net.fixhost[6].udpApp  "End-to-end delay"  ETV
vector 484  csma802154net.fixhost[4].udpApp  "End-to-end delay"  ETV
vector 490  csma802154net.fixhost[10].udpApp  "End-to-end delay"  ETV
464	1955 5311 1308358 3186484 70.047596092338 7273.01567602689 117 0.007076009728 0.144444072361 3.709396184328 0.17204501196554
467	7266 38052 911 3186767 1.005 7273.025276009726 1331 0 133 6100 435014
468	45318 37930 911 3186767 1.005 7273.025276009726 1331 0 0 0 0
469	83248 37930 911 3186767 1.005 7273.025276009726 1331 0 0 0 0
470	121178 37930 911 3186767 1.005 7273.025276009726 1331 0 1 12 12
471	159108 37946 911 3186767 1.005 7273.025276009726 1331 0 127 1741 93611
472	197054 37950 911 3186767 1.005 7273.025276009726 1331 0 121 1365 80037
473	235004 60 723741 725013 50.076078879927 50.089652873349 2 1 2 3 5
476	235064 10338 1303691 3186484 70 7273.01567602689 338 0 3 351 637
478	245402 1295 49644 1252338 43.50001 54.701679318198 46 0 1 17 17
479	246697 499 49639 1296784 43.5 54.923470245167 21 0 4 39 99
483	247196 577 1316115 3183325 72.06391605573 7272.025444055729 13 0.019756055729 0.07842005573 0.449100724483 0.01964561967239
484	247773 595 1319341 3185897 73.008356009728 7273.010276009726 13 0.007076009728 0.010276009726 0.114708126462 0.001023540359719
486	248368 589 1317886 3184501 72.144444072361 7272.032836072361 13 0.025724072359 0.144444072361 0.557844940683 0.035930943275614
487	248957 595 1312939 3179552 71.017556057707 7271.017236057707 13 0.015636057706 0.018836057707 0.225348750183 0.0039178598160822
490	249552 593 1319928 3186484 73.011836026892 7273.01567602689 13 0.011196026892 0.01567602689 0.170188349593 0.0022465322413119
492	250145 595 1309173 3174045 70.066396135884 7270.019116073728 13 0.019116073728 0.066396135884 0.39503714493 0.014185110403449
497	250740 595 1317300 3183916 72.072444086027 7272.027644086027 13 0.024764086027 0.072444086027 0.480797118343 0.020739342322402
499	251335 585 1308358 3176424 70.047596092338 7270.05818809234 13 0.01975609234 0.066508092338 0.562197200408 0.027440337889319
501	251920 587 1310311 3177002 70.073964165378 7270.064900133311 13 0.03588416538 0.088828133312 0.754173829243 0.046915725985256
