file 238800 1353498399                                          
version 2
run AODVScenario_1f-30-20121121-11:46:19-1600
attr configname AODVScenario_1f
attr datetime 20121121-11:46:19
attr experiment AODVScenario_1f
attr inifile AODV.ini
attr iterationvars $numNodes=80
attr iterationvars2 "$numNodes=80, $repetition=0"
attr measurement $numNodes=80
attr network csma802154net
attr numNodes 80
attr processid 1600
attr repetition 0
attr replication #0
attr resultdir results
attr runnumber 30
attr seedset 30

vector 331  csma802154net.dataCentricNetworkMan  RREQPacketFrequency  ETV
vector 332  csma802154net.dataCentricNetworkMan  RERRPacketFrequency  ETV
vector 333  csma802154net.dataCentricNetworkMan  DiscoveryPacketFrequency  ETV
vector 334  csma802154net.dataCentricNetworkMan  RegisterPacketFrequency  ETV
vector 335  csma802154net.dataCentricNetworkMan  RReplyPacketFrequency  ETV
vector 336  csma802154net.dataCentricNetworkMan  AODVDataPacketFrequency  ETV
vector 343  csma802154net.dataCentricNetworkMan  pendingRegistrationVector  ETV
vector 342  csma802154net.dataCentricNetworkMan  pendingRREQVector  ETV
vector 340  csma802154net.dataCentricNetworkMan  PendingDataPacketsVector  ETV
vector 355  csma802154net.fixhost[11].udpApp  "End-to-end delay"  ETV
vector 328  csma802154net.dataCentricNetworkMan  dataPacketE2EDelay  ETV
vector 360  csma802154net.fixhost[16].udpApp  "End-to-end delay"  ETV
vector 358  csma802154net.fixhost[14].udpApp  "End-to-end delay"  ETV
vector 347  csma802154net.fixhost[3].udpApp  "End-to-end delay"  ETV
vector 356  csma802154net.fixhost[12].udpApp  "End-to-end delay"  ETV
vector 349  csma802154net.fixhost[5].udpApp  "End-to-end delay"  ETV
vector 348  csma802154net.fixhost[4].udpApp  "End-to-end delay"  ETV
vector 350  csma802154net.fixhost[6].udpApp  "End-to-end delay"  ETV
vector 351  csma802154net.fixhost[7].udpApp  "End-to-end delay"  ETV
vector 354  csma802154net.fixhost[10].udpApp  "End-to-end delay"  ETV
vector 357  csma802154net.fixhost[13].udpApp  "End-to-end delay"  ETV
vector 361  csma802154net.fixhost[17].udpApp  "End-to-end delay"  ETV
328	2084 7088 559440 1949939 70.007076024821 7273.050636177903 156 0.006756024822 0.094900156647 5.752982804727 0.28047004044027
331	9172 34658 633 1950145 1.005 7273.06001 1228 0 97 1559 81871
332	43830 34621 633 1950145 1.005 7273.06001 1228 0 0 0 0
333	78451 34621 633 1950145 1.005 7273.06001 1228 0 0 0 0
334	113072 34621 633 1950145 1.005 7273.06001 1228 0 1 12 12
335	147693 34633 633 1950145 1.005 7273.06001 1228 0 78 1246 35052
336	182326 34638 633 1950145 1.005 7273.06001 1228 0 78 1175 29051
340	216964 12826 558746 1949939 70 7273.050636177903 416 0 3 520 1040
342	229790 1340 27812 526519 43.50001 54.6340761637 48 0 1 16 16
343	231130 582 27807 554692 43.5 54.858185976991 24 0 1 12 12
347	231712 591 562424 1939714 71.017876060073 7271.033092060072 13 0.015636060073 0.033092060072 0.256596780942 0.0053437592927406
348	232303 591 566876 1943169 72.024516081545 7272.031484081546 13 0.024124081546 0.034644112771 0.380861278674 0.011331761881138
349	232894 591 564038 1938886 71.037212086284 7271.026404086284 13 0.021996086285 0.057940086285 0.456317121692 0.017544601449587
350	233485 591 568290 1943944 72.061772107768 7272.034644107769 13 0.033612107768 0.067492138995 0.643045640254 0.03365337782487
351	234076 591 569527 1944785 72.090140142746 7272.043244142747 13 0.042284142746 0.094900156647 0.875061968479 0.062594256140914
354	234667 591 572191 1949083 73.026116086297 7273.040116146035 13 0.022596086297 0.041324146034 0.378173241329 0.011426261576007
355	235258 589 559440 1935117 70.007076024821 7270.008036024822 13 0.006756024822 0.009956024822 0.108308322682 0.00091146670478223
356	235847 591 563626 1939292 71.031484110696 7271.029244110695 13 0.027324110695 0.071412110693 0.541309439037 0.024837135472339
357	236438 591 574254 1948234 73.057044118326 7273.031836118326 13 0.027996118325 0.059852118326 0.619509538227 0.031411299454943
358	237029 589 560610 1936290 70.027476052372 7270.022284052372 13 0.014996052372 0.04404405237 0.282516680841 0.0068391691279819
360	237618 591 560216 1935896 70.016596061101 7270.018516061102 13 0.016596061101 0.064452061102 0.317324794319 0.010077812554046
361	238209 591 574683 1949939 73.081892149314 7273.050636177903 13 0.041324149313 0.089180149314 0.893957998251 0.064499138960916
