version 2
run AODV_Experiment_Binding-0-20121211-00:41:08-948
attr configname AODV_Experiment_Binding
attr datetime 20121211-00:41:08
attr experiment AODV_Experiment_Binding
attr inifile AODV_2.ini
attr iterationvars ""
attr iterationvars2 $repetition=0
attr measurement ""
attr network csma802154net
attr processid 948
attr repetition 0
attr replication #0
attr resultdir results
attr runnumber 0
attr seedset 0

vector 17  csma802154net.fixhost[0].wlan.ifq  queueLength:vector  ETV
attr interpolationmode  sample-hold
attr title  "queue length, vector"
vector 39  csma802154net.fixhost[1].wlan.ifq  queueLength:vector  ETV
attr interpolationmode  sample-hold
attr title  "queue length, vector"
vector 61  csma802154net.fixhost[2].wlan.ifq  queueLength:vector  ETV
attr interpolationmode  sample-hold
attr title  "queue length, vector"
vector 83  csma802154net.fixhost[3].wlan.ifq  queueLength:vector  ETV
attr interpolationmode  sample-hold
attr title  "queue length, vector"
vector 105  csma802154net.fixhost[4].wlan.ifq  queueLength:vector  ETV
attr interpolationmode  sample-hold
attr title  "queue length, vector"
vector 127  csma802154net.fixhost[5].wlan.ifq  queueLength:vector  ETV
attr interpolationmode  sample-hold
attr title  "queue length, vector"
vector 149  csma802154net.fixhost[6].wlan.ifq  queueLength:vector  ETV
attr interpolationmode  sample-hold
attr title  "queue length, vector"
vector 171  csma802154net.fixhost[7].wlan.ifq  queueLength:vector  ETV
attr interpolationmode  sample-hold
attr title  "queue length, vector"
vector 193  csma802154net.fixhost[8].wlan.ifq  queueLength:vector  ETV
attr interpolationmode  sample-hold
attr title  "queue length, vector"
vector 215  csma802154net.fixhost[9].wlan.ifq  queueLength:vector  ETV
attr interpolationmode  sample-hold
attr title  "queue length, vector"
vector 237  csma802154net.fixhost[10].wlan.ifq  queueLength:vector  ETV
attr interpolationmode  sample-hold
attr title  "queue length, vector"
vector 259  csma802154net.fixhost[11].wlan.ifq  queueLength:vector  ETV
attr interpolationmode  sample-hold
attr title  "queue length, vector"
vector 281  csma802154net.fixhost[12].wlan.ifq  queueLength:vector  ETV
attr interpolationmode  sample-hold
attr title  "queue length, vector"
vector 303  csma802154net.fixhost[13].wlan.ifq  queueLength:vector  ETV
attr interpolationmode  sample-hold
attr title  "queue length, vector"
vector 325  csma802154net.fixhost[14].wlan.ifq  queueLength:vector  ETV
attr interpolationmode  sample-hold
attr title  "queue length, vector"
vector 347  csma802154net.fixhost[15].wlan.ifq  queueLength:vector  ETV
attr interpolationmode  sample-hold
attr title  "queue length, vector"
vector 369  csma802154net.fixhost[16].wlan.ifq  queueLength:vector  ETV
attr interpolationmode  sample-hold
attr title  "queue length, vector"
vector 391  csma802154net.fixhost[17].wlan.ifq  queueLength:vector  ETV
attr interpolationmode  sample-hold
attr title  "queue length, vector"
vector 413  csma802154net.fixhost[18].wlan.ifq  queueLength:vector  ETV
attr interpolationmode  sample-hold
attr title  "queue length, vector"
vector 435  csma802154net.fixhost[19].wlan.ifq  queueLength:vector  ETV
attr interpolationmode  sample-hold
attr title  "queue length, vector"
vector 457  csma802154net.fixhost[20].wlan.ifq  queueLength:vector  ETV
attr interpolationmode  sample-hold
attr title  "queue length, vector"
vector 479  csma802154net.fixhost[21].wlan.ifq  queueLength:vector  ETV
attr interpolationmode  sample-hold
attr title  "queue length, vector"
vector 501  csma802154net.fixhost[22].wlan.ifq  queueLength:vector  ETV
attr interpolationmode  sample-hold
attr title  "queue length, vector"
vector 523  csma802154net.fixhost[23].wlan.ifq  queueLength:vector  ETV
attr interpolationmode  sample-hold
attr title  "queue length, vector"
vector 545  csma802154net.fixhost[24].wlan.ifq  queueLength:vector  ETV
attr interpolationmode  sample-hold
attr title  "queue length, vector"
vector 567  csma802154net.fixhost[25].wlan.ifq  queueLength:vector  ETV
attr interpolationmode  sample-hold
attr title  "queue length, vector"
vector 589  csma802154net.fixhost[26].wlan.ifq  queueLength:vector  ETV
attr interpolationmode  sample-hold
attr title  "queue length, vector"
vector 611  csma802154net.fixhost[27].wlan.ifq  queueLength:vector  ETV
attr interpolationmode  sample-hold
attr title  "queue length, vector"
vector 633  csma802154net.fixhost[28].wlan.ifq  queueLength:vector  ETV
attr interpolationmode  sample-hold
attr title  "queue length, vector"
vector 655  csma802154net.fixhost[29].wlan.ifq  queueLength:vector  ETV
attr interpolationmode  sample-hold
attr title  "queue length, vector"
vector 677  csma802154net.fixhost[30].wlan.ifq  queueLength:vector  ETV
attr interpolationmode  sample-hold
attr title  "queue length, vector"
vector 699  csma802154net.fixhost[31].wlan.ifq  queueLength:vector  ETV
attr interpolationmode  sample-hold
attr title  "queue length, vector"
vector 721  csma802154net.fixhost[32].wlan.ifq  queueLength:vector  ETV
attr interpolationmode  sample-hold
attr title  "queue length, vector"
vector 743  csma802154net.fixhost[33].wlan.ifq  queueLength:vector  ETV
attr interpolationmode  sample-hold
attr title  "queue length, vector"
vector 765  csma802154net.fixhost[34].wlan.ifq  queueLength:vector  ETV
attr interpolationmode  sample-hold
attr title  "queue length, vector"
vector 787  csma802154net.fixhost[35].wlan.ifq  queueLength:vector  ETV
attr interpolationmode  sample-hold
attr title  "queue length, vector"
vector 809  csma802154net.fixhost[36].wlan.ifq  queueLength:vector  ETV
attr interpolationmode  sample-hold
attr title  "queue length, vector"
vector 831  csma802154net.fixhost[37].wlan.ifq  queueLength:vector  ETV
attr interpolationmode  sample-hold
attr title  "queue length, vector"
vector 853  csma802154net.fixhost[38].wlan.ifq  queueLength:vector  ETV
attr interpolationmode  sample-hold
attr title  "queue length, vector"
vector 875  csma802154net.fixhost[39].wlan.ifq  queueLength:vector  ETV
attr interpolationmode  sample-hold
attr title  "queue length, vector"
vector 897  csma802154net.fixhost[40].wlan.ifq  queueLength:vector  ETV
attr interpolationmode  sample-hold
attr title  "queue length, vector"
vector 919  csma802154net.fixhost[41].wlan.ifq  queueLength:vector  ETV
attr interpolationmode  sample-hold
attr title  "queue length, vector"
vector 941  csma802154net.fixhost[42].wlan.ifq  queueLength:vector  ETV
attr interpolationmode  sample-hold
attr title  "queue length, vector"
vector 963  csma802154net.fixhost[43].wlan.ifq  queueLength:vector  ETV
attr interpolationmode  sample-hold
attr title  "queue length, vector"
vector 985  csma802154net.fixhost[44].wlan.ifq  queueLength:vector  ETV
attr interpolationmode  sample-hold
attr title  "queue length, vector"
vector 1007  csma802154net.fixhost[45].wlan.ifq  queueLength:vector  ETV
attr interpolationmode  sample-hold
attr title  "queue length, vector"
vector 1029  csma802154net.fixhost[46].wlan.ifq  queueLength:vector  ETV
attr interpolationmode  sample-hold
attr title  "queue length, vector"
vector 1051  csma802154net.fixhost[47].wlan.ifq  queueLength:vector  ETV
attr interpolationmode  sample-hold
attr title  "queue length, vector"
vector 1073  csma802154net.fixhost[48].wlan.ifq  queueLength:vector  ETV
attr interpolationmode  sample-hold
attr title  "queue length, vector"
vector 1095  csma802154net.fixhost[49].wlan.ifq  queueLength:vector  ETV
attr interpolationmode  sample-hold
attr title  "queue length, vector"
vector 1117  csma802154net.fixhost[50].wlan.ifq  queueLength:vector  ETV
attr interpolationmode  sample-hold
attr title  "queue length, vector"
vector 1139  csma802154net.fixhost[51].wlan.ifq  queueLength:vector  ETV
attr interpolationmode  sample-hold
attr title  "queue length, vector"
vector 1161  csma802154net.fixhost[52].wlan.ifq  queueLength:vector  ETV
attr interpolationmode  sample-hold
attr title  "queue length, vector"
vector 1183  csma802154net.fixhost[53].wlan.ifq  queueLength:vector  ETV
attr interpolationmode  sample-hold
attr title  "queue length, vector"
vector 1205  csma802154net.fixhost[54].wlan.ifq  queueLength:vector  ETV
attr interpolationmode  sample-hold
attr title  "queue length, vector"
vector 1227  csma802154net.fixhost[55].wlan.ifq  queueLength:vector  ETV
attr interpolationmode  sample-hold
attr title  "queue length, vector"
vector 1249  csma802154net.fixhost[56].wlan.ifq  queueLength:vector  ETV
attr interpolationmode  sample-hold
attr title  "queue length, vector"
vector 1271  csma802154net.fixhost[57].wlan.ifq  queueLength:vector  ETV
attr interpolationmode  sample-hold
attr title  "queue length, vector"
vector 1293  csma802154net.fixhost[58].wlan.ifq  queueLength:vector  ETV
attr interpolationmode  sample-hold
attr title  "queue length, vector"
vector 1315  csma802154net.fixhost[59].wlan.ifq  queueLength:vector  ETV
attr interpolationmode  sample-hold
attr title  "queue length, vector"
vector 1337  csma802154net.fixhost[60].wlan.ifq  queueLength:vector  ETV
attr interpolationmode  sample-hold
attr title  "queue length, vector"
vector 1359  csma802154net.fixhost[61].wlan.ifq  queueLength:vector  ETV
attr interpolationmode  sample-hold
attr title  "queue length, vector"
vector 1381  csma802154net.fixhost[62].wlan.ifq  queueLength:vector  ETV
attr interpolationmode  sample-hold
attr title  "queue length, vector"
vector 1403  csma802154net.fixhost[63].wlan.ifq  queueLength:vector  ETV
attr interpolationmode  sample-hold
attr title  "queue length, vector"
vector 1425  csma802154net.fixhost[64].wlan.ifq  queueLength:vector  ETV
attr interpolationmode  sample-hold
attr title  "queue length, vector"
vector 1447  csma802154net.fixhost[65].wlan.ifq  queueLength:vector  ETV
attr interpolationmode  sample-hold
attr title  "queue length, vector"
vector 1469  csma802154net.fixhost[66].wlan.ifq  queueLength:vector  ETV
attr interpolationmode  sample-hold
attr title  "queue length, vector"
vector 1491  csma802154net.fixhost[67].wlan.ifq  queueLength:vector  ETV
attr interpolationmode  sample-hold
attr title  "queue length, vector"
vector 1513  csma802154net.fixhost[68].wlan.ifq  queueLength:vector  ETV
attr interpolationmode  sample-hold
attr title  "queue length, vector"
vector 1535  csma802154net.fixhost[69].wlan.ifq  queueLength:vector  ETV
attr interpolationmode  sample-hold
attr title  "queue length, vector"
vector 1557  csma802154net.fixhost[70].wlan.ifq  queueLength:vector  ETV
attr interpolationmode  sample-hold
attr title  "queue length, vector"
vector 1579  csma802154net.fixhost[71].wlan.ifq  queueLength:vector  ETV
attr interpolationmode  sample-hold
attr title  "queue length, vector"
vector 1601  csma802154net.fixhost[72].wlan.ifq  queueLength:vector  ETV
attr interpolationmode  sample-hold
attr title  "queue length, vector"
vector 1623  csma802154net.fixhost[73].wlan.ifq  queueLength:vector  ETV
attr interpolationmode  sample-hold
attr title  "queue length, vector"
vector 1645  csma802154net.fixhost[74].wlan.ifq  queueLength:vector  ETV
attr interpolationmode  sample-hold
attr title  "queue length, vector"
vector 1667  csma802154net.fixhost[75].wlan.ifq  queueLength:vector  ETV
attr interpolationmode  sample-hold
attr title  "queue length, vector"
vector 1689  csma802154net.fixhost[76].wlan.ifq  queueLength:vector  ETV
attr interpolationmode  sample-hold
attr title  "queue length, vector"
vector 1711  csma802154net.fixhost[77].wlan.ifq  queueLength:vector  ETV
attr interpolationmode  sample-hold
attr title  "queue length, vector"
vector 1733  csma802154net.fixhost[78].wlan.ifq  queueLength:vector  ETV
attr interpolationmode  sample-hold
attr title  "queue length, vector"
vector 1755  csma802154net.fixhost[79].wlan.ifq  queueLength:vector  ETV
attr interpolationmode  sample-hold
attr title  "queue length, vector"
vector 1777  csma802154net.fixhost[80].wlan.ifq  queueLength:vector  ETV
attr interpolationmode  sample-hold
attr title  "queue length, vector"
vector 1799  csma802154net.fixhost[81].wlan.ifq  queueLength:vector  ETV
attr interpolationmode  sample-hold
attr title  "queue length, vector"
vector 1821  csma802154net.fixhost[82].wlan.ifq  queueLength:vector  ETV
attr interpolationmode  sample-hold
attr title  "queue length, vector"
vector 1843  csma802154net.fixhost[83].wlan.ifq  queueLength:vector  ETV
attr interpolationmode  sample-hold
attr title  "queue length, vector"
vector 1865  csma802154net.fixhost[84].wlan.ifq  queueLength:vector  ETV
attr interpolationmode  sample-hold
attr title  "queue length, vector"
vector 1887  csma802154net.fixhost[85].wlan.ifq  queueLength:vector  ETV
attr interpolationmode  sample-hold
attr title  "queue length, vector"
vector 1909  csma802154net.fixhost[86].wlan.ifq  queueLength:vector  ETV
attr interpolationmode  sample-hold
attr title  "queue length, vector"
vector 1931  csma802154net.fixhost[87].wlan.ifq  queueLength:vector  ETV
attr interpolationmode  sample-hold
attr title  "queue length, vector"
vector 1953  csma802154net.fixhost[88].wlan.ifq  queueLength:vector  ETV
attr interpolationmode  sample-hold
attr title  "queue length, vector"
vector 1975  csma802154net.fixhost[89].wlan.ifq  queueLength:vector  ETV
attr interpolationmode  sample-hold
attr title  "queue length, vector"
vector 1997  csma802154net.fixhost[90].wlan.ifq  queueLength:vector  ETV
attr interpolationmode  sample-hold
attr title  "queue length, vector"
vector 2019  csma802154net.fixhost[91].wlan.ifq  queueLength:vector  ETV
attr interpolationmode  sample-hold
attr title  "queue length, vector"
vector 2041  csma802154net.fixhost[92].wlan.ifq  queueLength:vector  ETV
attr interpolationmode  sample-hold
attr title  "queue length, vector"
vector 2063  csma802154net.fixhost[93].wlan.ifq  queueLength:vector  ETV
attr interpolationmode  sample-hold
attr title  "queue length, vector"
vector 2085  csma802154net.fixhost[94].wlan.ifq  queueLength:vector  ETV
attr interpolationmode  sample-hold
attr title  "queue length, vector"
vector 2107  csma802154net.fixhost[95].wlan.ifq  queueLength:vector  ETV
attr interpolationmode  sample-hold
attr title  "queue length, vector"
vector 2129  csma802154net.fixhost[96].wlan.ifq  queueLength:vector  ETV
attr interpolationmode  sample-hold
attr title  "queue length, vector"
vector 2151  csma802154net.fixhost[97].wlan.ifq  queueLength:vector  ETV
attr interpolationmode  sample-hold
attr title  "queue length, vector"
vector 2173  csma802154net.fixhost[98].wlan.ifq  queueLength:vector  ETV
attr interpolationmode  sample-hold
attr title  "queue length, vector"
vector 2195  csma802154net.fixhost[99].wlan.ifq  queueLength:vector  ETV
attr interpolationmode  sample-hold
attr title  "queue length, vector"
vector 2217  csma802154net.fixhost[100].wlan.ifq  queueLength:vector  ETV
attr interpolationmode  sample-hold
attr title  "queue length, vector"
vector 2239  csma802154net.fixhost[101].wlan.ifq  queueLength:vector  ETV
attr interpolationmode  sample-hold
attr title  "queue length, vector"
vector 2261  csma802154net.fixhost[102].wlan.ifq  queueLength:vector  ETV
attr interpolationmode  sample-hold
attr title  "queue length, vector"
vector 2283  csma802154net.fixhost[103].wlan.ifq  queueLength:vector  ETV
attr interpolationmode  sample-hold
attr title  "queue length, vector"
vector 2305  csma802154net.fixhost[104].wlan.ifq  queueLength:vector  ETV
attr interpolationmode  sample-hold
attr title  "queue length, vector"
vector 2327  csma802154net.fixhost[105].wlan.ifq  queueLength:vector  ETV
attr interpolationmode  sample-hold
attr title  "queue length, vector"
vector 2349  csma802154net.fixhost[106].wlan.ifq  queueLength:vector  ETV
attr interpolationmode  sample-hold
attr title  "queue length, vector"
vector 2371  csma802154net.fixhost[107].wlan.ifq  queueLength:vector  ETV
attr interpolationmode  sample-hold
attr title  "queue length, vector"
vector 2393  csma802154net.fixhost[108].wlan.ifq  queueLength:vector  ETV
attr interpolationmode  sample-hold
attr title  "queue length, vector"
vector 2415  csma802154net.fixhost[109].wlan.ifq  queueLength:vector  ETV
attr interpolationmode  sample-hold
attr title  "queue length, vector"
vector 2437  csma802154net.fixhost[110].wlan.ifq  queueLength:vector  ETV
attr interpolationmode  sample-hold
attr title  "queue length, vector"
vector 2459  csma802154net.fixhost[111].wlan.ifq  queueLength:vector  ETV
attr interpolationmode  sample-hold
attr title  "queue length, vector"
vector 2481  csma802154net.fixhost[112].wlan.ifq  queueLength:vector  ETV
attr interpolationmode  sample-hold
attr title  "queue length, vector"
vector 2503  csma802154net.fixhost[113].wlan.ifq  queueLength:vector  ETV
attr interpolationmode  sample-hold
attr title  "queue length, vector"
vector 2525  csma802154net.fixhost[114].wlan.ifq  queueLength:vector  ETV
attr interpolationmode  sample-hold
attr title  "queue length, vector"
vector 2547  csma802154net.fixhost[115].wlan.ifq  queueLength:vector  ETV
attr interpolationmode  sample-hold
attr title  "queue length, vector"
vector 2569  csma802154net.fixhost[116].wlan.ifq  queueLength:vector  ETV
attr interpolationmode  sample-hold
attr title  "queue length, vector"
vector 2591  csma802154net.fixhost[117].wlan.ifq  queueLength:vector  ETV
attr interpolationmode  sample-hold
attr title  "queue length, vector"
vector 2613  csma802154net.fixhost[118].wlan.ifq  queueLength:vector  ETV
attr interpolationmode  sample-hold
attr title  "queue length, vector"
vector 2635  csma802154net.fixhost[119].wlan.ifq  queueLength:vector  ETV
attr interpolationmode  sample-hold
attr title  "queue length, vector"
vector 2657  csma802154net.fixhost[120].wlan.ifq  queueLength:vector  ETV
attr interpolationmode  sample-hold
attr title  "queue length, vector"
vector 2679  csma802154net.fixhost[121].wlan.ifq  queueLength:vector  ETV
attr interpolationmode  sample-hold
attr title  "queue length, vector"
vector 2701  csma802154net.fixhost[122].wlan.ifq  queueLength:vector  ETV
attr interpolationmode  sample-hold
attr title  "queue length, vector"
vector 2723  csma802154net.fixhost[123].wlan.ifq  queueLength:vector  ETV
attr interpolationmode  sample-hold
attr title  "queue length, vector"
vector 2745  csma802154net.fixhost[124].wlan.ifq  queueLength:vector  ETV
attr interpolationmode  sample-hold
attr title  "queue length, vector"
vector 18  csma802154net.fixhost[0].wlan.phy  bitrate:vector  ETV
attr interpolationmode  sample-hold
attr title  "tx bitrate, vector"
attr unit  bps
vector 20  csma802154net.fixhost[0].wlan.phy  radioState:vector  ETV
attr interpolationmode  sample-hold
attr title  "radio state (enum), vector"
vector 19  csma802154net.fixhost[0].wlan.phy  channelNo:vector  ETV
attr interpolationmode  sample-hold
attr title  "channel no, vector"
vector 40  csma802154net.fixhost[1].wlan.phy  bitrate:vector  ETV
attr interpolationmode  sample-hold
attr title  "tx bitrate, vector"
attr unit  bps
vector 42  csma802154net.fixhost[1].wlan.phy  radioState:vector  ETV
attr interpolationmode  sample-hold
attr title  "radio state (enum), vector"
vector 41  csma802154net.fixhost[1].wlan.phy  channelNo:vector  ETV
attr interpolationmode  sample-hold
attr title  "channel no, vector"
vector 62  csma802154net.fixhost[2].wlan.phy  bitrate:vector  ETV
attr interpolationmode  sample-hold
attr title  "tx bitrate, vector"
attr unit  bps
vector 64  csma802154net.fixhost[2].wlan.phy  radioState:vector  ETV
attr interpolationmode  sample-hold
attr title  "radio state (enum), vector"
vector 63  csma802154net.fixhost[2].wlan.phy  channelNo:vector  ETV
attr interpolationmode  sample-hold
attr title  "channel no, vector"
vector 84  csma802154net.fixhost[3].wlan.phy  bitrate:vector  ETV
attr interpolationmode  sample-hold
attr title  "tx bitrate, vector"
attr unit  bps
vector 86  csma802154net.fixhost[3].wlan.phy  radioState:vector  ETV
attr interpolationmode  sample-hold
attr title  "radio state (enum), vector"
vector 85  csma802154net.fixhost[3].wlan.phy  channelNo:vector  ETV
attr interpolationmode  sample-hold
attr title  "channel no, vector"
vector 106  csma802154net.fixhost[4].wlan.phy  bitrate:vector  ETV
attr interpolationmode  sample-hold
attr title  "tx bitrate, vector"
attr unit  bps
vector 108  csma802154net.fixhost[4].wlan.phy  radioState:vector  ETV
attr interpolationmode  sample-hold
attr title  "radio state (enum), vector"
vector 107  csma802154net.fixhost[4].wlan.phy  channelNo:vector  ETV
attr interpolationmode  sample-hold
attr title  "channel no, vector"
vector 128  csma802154net.fixhost[5].wlan.phy  bitrate:vector  ETV
attr interpolationmode  sample-hold
attr title  "tx bitrate, vector"
attr unit  bps
vector 130  csma802154net.fixhost[5].wlan.phy  radioState:vector  ETV
attr interpolationmode  sample-hold
attr title  "radio state (enum), vector"
vector 129  csma802154net.fixhost[5].wlan.phy  channelNo:vector  ETV
attr interpolationmode  sample-hold
attr title  "channel no, vector"
vector 150  csma802154net.fixhost[6].wlan.phy  bitrate:vector  ETV
attr interpolationmode  sample-hold
attr title  "tx bitrate, vector"
attr unit  bps
vector 152  csma802154net.fixhost[6].wlan.phy  radioState:vector  ETV
attr interpolationmode  sample-hold
attr title  "radio state (enum), vector"
vector 151  csma802154net.fixhost[6].wlan.phy  channelNo:vector  ETV
attr interpolationmode  sample-hold
attr title  "channel no, vector"
vector 172  csma802154net.fixhost[7].wlan.phy  bitrate:vector  ETV
attr interpolationmode  sample-hold
attr title  "tx bitrate, vector"
attr unit  bps
vector 174  csma802154net.fixhost[7].wlan.phy  radioState:vector  ETV
attr interpolationmode  sample-hold
attr title  "radio state (enum), vector"
vector 173  csma802154net.fixhost[7].wlan.phy  channelNo:vector  ETV
attr interpolationmode  sample-hold
attr title  "channel no, vector"
vector 194  csma802154net.fixhost[8].wlan.phy  bitrate:vector  ETV
attr interpolationmode  sample-hold
attr title  "tx bitrate, vector"
attr unit  bps
vector 196  csma802154net.fixhost[8].wlan.phy  radioState:vector  ETV
attr interpolationmode  sample-hold
attr title  "radio state (enum), vector"
vector 195  csma802154net.fixhost[8].wlan.phy  channelNo:vector  ETV
attr interpolationmode  sample-hold
attr title  "channel no, vector"
vector 216  csma802154net.fixhost[9].wlan.phy  bitrate:vector  ETV
attr interpolationmode  sample-hold
attr title  "tx bitrate, vector"
attr unit  bps
vector 218  csma802154net.fixhost[9].wlan.phy  radioState:vector  ETV
attr interpolationmode  sample-hold
attr title  "radio state (enum), vector"
vector 217  csma802154net.fixhost[9].wlan.phy  channelNo:vector  ETV
attr interpolationmode  sample-hold
attr title  "channel no, vector"
vector 238  csma802154net.fixhost[10].wlan.phy  bitrate:vector  ETV
attr interpolationmode  sample-hold
attr title  "tx bitrate, vector"
attr unit  bps
vector 240  csma802154net.fixhost[10].wlan.phy  radioState:vector  ETV
attr interpolationmode  sample-hold
attr title  "radio state (enum), vector"
vector 239  csma802154net.fixhost[10].wlan.phy  channelNo:vector  ETV
attr interpolationmode  sample-hold
attr title  "channel no, vector"
vector 260  csma802154net.fixhost[11].wlan.phy  bitrate:vector  ETV
attr interpolationmode  sample-hold
attr title  "tx bitrate, vector"
attr unit  bps
vector 262  csma802154net.fixhost[11].wlan.phy  radioState:vector  ETV
attr interpolationmode  sample-hold
attr title  "radio state (enum), vector"
vector 261  csma802154net.fixhost[11].wlan.phy  channelNo:vector  ETV
attr interpolationmode  sample-hold
attr title  "channel no, vector"
vector 282  csma802154net.fixhost[12].wlan.phy  bitrate:vector  ETV
attr interpolationmode  sample-hold
attr title  "tx bitrate, vector"
attr unit  bps
vector 284  csma802154net.fixhost[12].wlan.phy  radioState:vector  ETV
attr interpolationmode  sample-hold
attr title  "radio state (enum), vector"
vector 283  csma802154net.fixhost[12].wlan.phy  channelNo:vector  ETV
attr interpolationmode  sample-hold
attr title  "channel no, vector"
vector 304  csma802154net.fixhost[13].wlan.phy  bitrate:vector  ETV
attr interpolationmode  sample-hold
attr title  "tx bitrate, vector"
attr unit  bps
vector 306  csma802154net.fixhost[13].wlan.phy  radioState:vector  ETV
attr interpolationmode  sample-hold
attr title  "radio state (enum), vector"
vector 305  csma802154net.fixhost[13].wlan.phy  channelNo:vector  ETV
attr interpolationmode  sample-hold
attr title  "channel no, vector"
vector 326  csma802154net.fixhost[14].wlan.phy  bitrate:vector  ETV
attr interpolationmode  sample-hold
attr title  "tx bitrate, vector"
attr unit  bps
vector 328  csma802154net.fixhost[14].wlan.phy  radioState:vector  ETV
attr interpolationmode  sample-hold
attr title  "radio state (enum), vector"
vector 327  csma802154net.fixhost[14].wlan.phy  channelNo:vector  ETV
attr interpolationmode  sample-hold
attr title  "channel no, vector"
vector 348  csma802154net.fixhost[15].wlan.phy  bitrate:vector  ETV
attr interpolationmode  sample-hold
attr title  "tx bitrate, vector"
attr unit  bps
vector 350  csma802154net.fixhost[15].wlan.phy  radioState:vector  ETV
attr interpolationmode  sample-hold
attr title  "radio state (enum), vector"
vector 349  csma802154net.fixhost[15].wlan.phy  channelNo:vector  ETV
attr interpolationmode  sample-hold
attr title  "channel no, vector"
vector 370  csma802154net.fixhost[16].wlan.phy  bitrate:vector  ETV
attr interpolationmode  sample-hold
attr title  "tx bitrate, vector"
attr unit  bps
vector 372  csma802154net.fixhost[16].wlan.phy  radioState:vector  ETV
attr interpolationmode  sample-hold
attr title  "radio state (enum), vector"
vector 371  csma802154net.fixhost[16].wlan.phy  channelNo:vector  ETV
attr interpolationmode  sample-hold
attr title  "channel no, vector"
vector 392  csma802154net.fixhost[17].wlan.phy  bitrate:vector  ETV
attr interpolationmode  sample-hold
attr title  "tx bitrate, vector"
attr unit  bps
vector 394  csma802154net.fixhost[17].wlan.phy  radioState:vector  ETV
attr interpolationmode  sample-hold
attr title  "radio state (enum), vector"
vector 393  csma802154net.fixhost[17].wlan.phy  channelNo:vector  ETV
attr interpolationmode  sample-hold
attr title  "channel no, vector"
vector 414  csma802154net.fixhost[18].wlan.phy  bitrate:vector  ETV
attr interpolationmode  sample-hold
attr title  "tx bitrate, vector"
attr unit  bps
vector 416  csma802154net.fixhost[18].wlan.phy  radioState:vector  ETV
attr interpolationmode  sample-hold
attr title  "radio state (enum), vector"
vector 415  csma802154net.fixhost[18].wlan.phy  channelNo:vector  ETV
attr interpolationmode  sample-hold
attr title  "channel no, vector"
vector 436  csma802154net.fixhost[19].wlan.phy  bitrate:vector  ETV
attr interpolationmode  sample-hold
attr title  "tx bitrate, vector"
attr unit  bps
vector 438  csma802154net.fixhost[19].wlan.phy  radioState:vector  ETV
attr interpolationmode  sample-hold
attr title  "radio state (enum), vector"
vector 437  csma802154net.fixhost[19].wlan.phy  channelNo:vector  ETV
attr interpolationmode  sample-hold
attr title  "channel no, vector"
vector 458  csma802154net.fixhost[20].wlan.phy  bitrate:vector  ETV
attr interpolationmode  sample-hold
attr title  "tx bitrate, vector"
attr unit  bps
vector 460  csma802154net.fixhost[20].wlan.phy  radioState:vector  ETV
attr interpolationmode  sample-hold
attr title  "radio state (enum), vector"
vector 459  csma802154net.fixhost[20].wlan.phy  channelNo:vector  ETV
attr interpolationmode  sample-hold
attr title  "channel no, vector"
vector 480  csma802154net.fixhost[21].wlan.phy  bitrate:vector  ETV
attr interpolationmode  sample-hold
attr title  "tx bitrate, vector"
attr unit  bps
vector 482  csma802154net.fixhost[21].wlan.phy  radioState:vector  ETV
attr interpolationmode  sample-hold
attr title  "radio state (enum), vector"
vector 481  csma802154net.fixhost[21].wlan.phy  channelNo:vector  ETV
attr interpolationmode  sample-hold
attr title  "channel no, vector"
vector 502  csma802154net.fixhost[22].wlan.phy  bitrate:vector  ETV
attr interpolationmode  sample-hold
attr title  "tx bitrate, vector"
attr unit  bps
vector 504  csma802154net.fixhost[22].wlan.phy  radioState:vector  ETV
attr interpolationmode  sample-hold
attr title  "radio state (enum), vector"
vector 503  csma802154net.fixhost[22].wlan.phy  channelNo:vector  ETV
attr interpolationmode  sample-hold
attr title  "channel no, vector"
vector 524  csma802154net.fixhost[23].wlan.phy  bitrate:vector  ETV
attr interpolationmode  sample-hold
attr title  "tx bitrate, vector"
attr unit  bps
vector 526  csma802154net.fixhost[23].wlan.phy  radioState:vector  ETV
attr interpolationmode  sample-hold
attr title  "radio state (enum), vector"
vector 525  csma802154net.fixhost[23].wlan.phy  channelNo:vector  ETV
attr interpolationmode  sample-hold
attr title  "channel no, vector"
vector 546  csma802154net.fixhost[24].wlan.phy  bitrate:vector  ETV
attr interpolationmode  sample-hold
attr title  "tx bitrate, vector"
attr unit  bps
vector 548  csma802154net.fixhost[24].wlan.phy  radioState:vector  ETV
attr interpolationmode  sample-hold
attr title  "radio state (enum), vector"
vector 547  csma802154net.fixhost[24].wlan.phy  channelNo:vector  ETV
attr interpolationmode  sample-hold
attr title  "channel no, vector"
vector 568  csma802154net.fixhost[25].wlan.phy  bitrate:vector  ETV
attr interpolationmode  sample-hold
attr title  "tx bitrate, vector"
attr unit  bps
vector 570  csma802154net.fixhost[25].wlan.phy  radioState:vector  ETV
attr interpolationmode  sample-hold
attr title  "radio state (enum), vector"
vector 569  csma802154net.fixhost[25].wlan.phy  channelNo:vector  ETV
attr interpolationmode  sample-hold
attr title  "channel no, vector"
vector 590  csma802154net.fixhost[26].wlan.phy  bitrate:vector  ETV
attr interpolationmode  sample-hold
attr title  "tx bitrate, vector"
attr unit  bps
vector 592  csma802154net.fixhost[26].wlan.phy  radioState:vector  ETV