version 2
run General-0-20120925-17:05:52-3160
attr configname General
attr datetime 20120925-17:05:52
attr experiment General
attr inifile omnetpp.ini
attr iterationvars ""
attr iterationvars2 $repetition=0
attr measurement ""
attr network csma802154net
attr processid 3160
attr repetition 0
attr replication #0
attr resultdir results
attr runnumber 0
attr seedset 0

vector 386  csma802154net.dataCentricNetworkMan  RREQPacketFrequency  ETV
vector 387  csma802154net.dataCentricNetworkMan  DiscoveryPacketFrequency  ETV
vector 388  csma802154net.dataCentricNetworkMan  RegisterPacketFrequency  ETV
vector 389  csma802154net.dataCentricNetworkMan  RReplyPacketFrequency  ETV
vector 390  csma802154net.dataCentricNetworkMan  AODVDataPacketFrequency  ETV
vector 394  csma802154net.fixhost[3].udpApp  "End-to-end delay"  ETV
vector 383  csma802154net.dataCentricNetworkMan  dataPacketE2EDelay  ETV
vector 397  csma802154net.fixhost[6].udpApp  "End-to-end delay"  ETV
vector 400  csma802154net.fixhost[9].udpApp  "End-to-end delay"  ETV
vector 408  csma802154net.fixhost[17].udpApp  "End-to-end delay"  ETV
vector 410  csma802154net.fixhost[19].udpApp  "End-to-end delay"  ETV
vector 411  csma802154net.fixhost[20].udpApp  "End-to-end delay"  ETV
vector 403  csma802154net.fixhost[12].udpApp  "End-to-end delay"  ETV
383	625110	20.540446373234	0.540446373234
383	634452	20.725630354703	0.725630354703
383	639483	20.832334354703	0.832334354703
383	645472	20.949118373232	0.949118373232
383	650077	21.024190355895	1.024190355895
383	656682	21.158076043737	1.158076043737
383	660677	21.250844036605	1.250844036605
383	664781	21.341692036604	1.341692036604
383	668922	21.43446003808	1.43446003808
383	673055	21.52818803808	1.52818803808
383	677174	21.61839603179	1.61839603179
383	681300	21.70860403179	1.70860403179
383	751556	22.756630114886	1.756630114886
383	757656	22.900062133415	1.900062133415
383	776999	23.284590166438	2.284590166438
383	779953	23.364366167631	2.364366167631
383	784672	23.457502133411	2.457502133411
383	789038	23.618054171807	2.618054171807
383	794128	23.722518164674	2.722518164674
383	805284	24.020997665649	3.020997665649
383	809980	24.137421667123	3.137421667123
383	817730	24.305173667123	3.305173667123
383	822595	24.425069660834	3.425069660834
383	826662	24.515597660833	3.515597660833
383	862044	25.031605674488	5.031605674488
383	871743	25.230109720378	5.230109720378
383	882609	25.472557720378	4.472557720378
383	887470	25.582141720377	4.582141720377
383	895257	25.731141735996	2.731141735996
383	904447	25.996325717468	2.996325717468
383	908962	26.086853717467	3.086853717467
383	913235	26.17642171866	3.17642171866
383	917378	26.262173735996	3.262173735996
383	919175	26.292581718659	3.292581718659
383	926866	26.445253720376	3.445253720376
383	940785	26.831389711523	3.831389711523
383	944807	26.919037711523	3.919037711523
383	947645	26.978797720371	3.978797720371
383	949975	27.030541713	4.030541713
383	954487	27.121389712999	4.121389712999
383	959583	27.208717706709	4.208717706709
383	965442	27.329285706707	4.329285706707
386	1135	2.005	1
386	1276	2.01	0
386	2004	2.030586446663	118
386	2139	2.035586446663	0
386	2723	2.052196933054	0
386	2994	2.057196933054	0
386	14255	3.005	1
386	14396	3.01	0
386	15007	3.029788453936	94
386	15139	3.034788453936	0
386	15699	3.049829968109	0
386	15845	3.054829968109	0
386	27562	4.005	1
386	27691	4.01	0
386	28264	4.02619308066	87
386	28399	4.03119308066	0
386	28952	4.04707795001	0
386	29223	4.05207795001	0
386	40231	6.005	1
386	40360	6.01	0
386	40849	6.026126481284	69
386	40978	6.031126481284	0
386	41513	6.045354803192	0
386	41784	6.050354803192	0
386	52250	7.005	1
386	52391	7.01	0
386	52899	7.03048247469	74
386	53034	7.03548247469	0
386	53574	7.051848226274	0
386	53720	7.056848226274	0
386	65216	8.005	1
386	65351	8.01	0
386	66058	8.027861706506	87
386	66059	8.032861706506	0
386	66612	8.044349973474	0
386	66754	8.049349973474	0
386	78796	10.005	1
386	78925	10.01	0
386	79462	10.026040345825	81
386	79463	10.031040345825	0
386	79474	10.24501	1
386	79606	10.25001	0
386	80684	10.2672911075	162
386	81338	10.2722911075	0
386	83046	10.285153389079	78
386	83278	10.290153389079	0
386	83453	10.295153389079	0
386	84855	10.301389512773	4
386	84922	10.306389512773	0
386	86511	10.317680476254	11
386	86616	10.322680476254	0
386	88060	10.334386081459	10
386	88105	10.339386081459	0
386	89303	10.351117050622	21
386	89326	10.356117050622	0
386	90380	10.369921341581	45
386	90448	10.374921341581	0
386	91817	10.387315378051	98
386	91976	10.392315378051	0
386	93701	10.403824267538	20
386	93774	10.408824267538	0
386	95072	10.420820788866	8
386	95135	10.425820788866	0
386	96502	10.437850244337	96
386	96554	10.442850244337	0
386	97484	10.454786277931	25
386	97629	10.459786277931	0
386	98628	10.47157447158	69
386	98695	10.47657447158	0
386	99633	10.487793718442	31
386	99673	10.492793718442	0
386	100728	10.505627491238	49
386	100885	10.510627491238	0
386	101537	10.522226411734	20
386	101869	10.527226411734	6
386	102020	10.532226411734	0
386	102424	10.540195824197	39
386	102958	10.545195824197	21
386	103122	10.550195824197	0
386	104100	10.563593071491	63
386	104253	10.568593071491	0
386	105114	10.581464163225	45
386	105259	10.586464163225	0
386	106190	10.601844026078	92
386	106204	10.606844026078	0
386	107109	10.620292544787	122
386	107254	10.625292544787	0
386	108080	10.638013201329	73
386	108347	10.643013201329	1
386	108378	10.648013201329	0
386	109245	10.657898595917	46
386	109721	10.662898595917	0
386	110738	10.680703994094	47
386	110746	10.685703994094	0
386	112290	10.708978885825	94
386	112786	10.713978885825	0
386	114587	10.727295671097	26
386	114688	10.732295671097	0
386	116430	10.744294726757	34
386	116721	10.749294726757	0
386	117774	10.761372164521	20
386	117843	10.766372164521	0
386	118871	10.777807306965	5
386	118933	10.782807306965	0
386	120066	10.794971212271	31
386	120142	10.799971212271	0
386	121370	10.812954338714	64
386	121650	10.817954338714	0
386	123064	10.830020702554	19
386	123135	10.835020702554	0
386	124208	10.847002230125	14
386	124660	10.852002230125	0
386	125548	10.864089965596	44
386	125811	10.869089965596	14
386	125845	10.874089965596	0
386	126691	10.88043674066	13
386	126737	10.88543674066	0
386	128064	10.897125005648	82
386	128202	10.902125005648	0
386	129484	10.913850600319	36
386	129595	10.918850600319	0
386	130972	10.930537429828	59
386	131016	10.935537429828	0
386	132369	10.947466395965	53
386	132402	10.952466395965	0
386	133488	10.96483653144	56
386	133520	10.96983653144	0
386	134326	10.981795062337	60
386	134888	10.986795062337	0
386	135416	10.997783374506	23
386	136229	11.002783374506	4
386	136380	11.007783374506	0
386	136974	11.02102539616	51
386	137392	11.02602539616	29
386	137413	11.03102539616	0
386	138077	11.037238011005	39
386	138288	11.042238011005	9
386	138454	11.047238011005	0
386	139204	11.054552359674	58
386	139205	11.059552359674	0
386	140197	11.073413570144	33
386	140474	11.078413570144	0
386	141117	11.095626014093	52
386	141594	11.100626014093	14
386	141603	11.105626014093	0
386	142562	11.116363401582	71
386	142767	11.121363401582	0
386	143275	11.135960810833	41
386	143603	11.140960810833	0
386	144364	11.159394014146	95
386	144385	11.164394014146	0
386	145168	11.176096448635	101
386	145180	11.181096448635	0
386	145891	11.19461617681	85
386	145902	11.19961617681	0
386	145904	11.20501	1
386	146250	11.21001	0
386	146628	11.21501	0
386	148266	11.243576906855	51
386	148637	11.248576906855	9
386	149007	11.253576906855	0
386	149791	11.261336083417	56
386	150499	11.266336083417	23
386	150589	11.271336083417	0
386	151535	11.278097582726	7
386	151772	11.283097582726	0
386	152761	11.294880147864	16
386	152831	11.299880147864	0
386	154336	11.311477513166	128
386	154631	11.316477513166	0
386	156718	11.329310239898	22
386	156775	11.334310239898	0
386	158337	11.346340011991	11
386	158384	11.351340011991	0
386	159429	11.363187547565	124
386	159884	11.368187547565	0
386	161344	11.379583934392	89
386	161540	11.384583934392	0
386	162671	11.395813047149	18
386	162934	11.400813047149	11
386	162987	11.405813047149	0
386	163840	11.414061169998	7
386	164033	11.419061169998	0
386	165051	11.431473344269	68
386	165262	11.436473344269	0
386	166166	11.448664883393	70
386	166462	11.453664883393	0
386	167165	11.464901967838	58
386	167743	11.469901967838	0
386	168706	11.486654164398	48
386	168989	11.491654164398	0
386	169946	11.503141213898	57
386	170123	11.508141213898	0
386	170981	11.520245246974	64
386	171153	11.525245246974	0
386	171771	11.537047797422	49
386	172261	11.542047797422	37
386	172295	11.547047797422	0
386	172940	11.553682051934	36
386	173359	11.558682051934	24
386	173388	11.563682051934	0
386	173836	11.571501136947	18
386	174292	11.576501136947	30
386	174439	11.581501136947	0
386	175353	11.594740744864	84
386	175513	11.599740744864	0
386	176457	11.611094931355	124
386	176735	11.616094931355	0
386	178700	11.632805100247	58
386	178748	11.637805100247	0
386	179874	11.64501	45
386	180361	11.65001	0
386	181801	11.66599197288	82
386	182010	11.67099197288	0
386	183175	11.683886566456	40
386	183252	11.688886566456	0
386	184373	11.701107396828	52
386	184555	11.706107396828	4
386	184598	11.711107396828	0
386	185506	11.719344169131	25
386	185546	11.724344169131	0
386	186557	11.735642922282	39
386	186583	11.740642922282	0
386	187582	11.752876149739	70
386	187639	11.757876149739	0
386	188693	11.770020336511	81
386	188722	11.775020336511	0
386	189648	11.788775221771	78
386	189959	11.793775221771	0
386	190670	11.805758849882	34
386	191488	11.810758849882	15
386	191628	11.815758849882	0
386	192822	11.827094849479	28
386	192852	11.832094849479	0
386	193853	11.847485249416	37
386	193902	11.852485249416	0
386	194575	11.864438881145	37
386	194593	11.869438881145	0
386	195341	11.880793538576	54
386	195356	11.885793538576	0
386	196267	11.896077352466	64
386	196284	11.901077352466	0
386	197256	11.91405002065	67
386	197267	11.91905002065	0
386	197294	11.92501	1
386	198251	11.93001	74
386	198269	11.93501	0
386	198874	11.95006160659	17
386	199020	11.95506160659	0
386	199655	11.964352072448	74
386	200432	11.969352072448	27
386	200545	11.974352072448	0
386	201225	11.982224064284	26
386	201544	11.987224064284	0
386	202259	11.999097756548	39
386	203127	12.004097756548	49
386	203325	12.009097756548	0
386	204520	12.017036534488	7
386	204715	12.022036534488	0
386	206346	12.033525768452	26
386	206701	12.038525768452	14
386	206794	12.043525768452	0
386	208197	12.051511527115	18
386	208478	12.056511527115	0
386	209490	12.068709571085	39
386	209959	12.073709571085	0
386	211099	12.085733029206	47
386	211166	12.090733029206	0
386	212577	12.102439933058	83
386	212664	12.107439933058	0
386	214181	12.120237265046	38
386	214275	12.125237265046	0
386	215027	12.138157762429	7
386	215434	12.143157762429	17
386	215468	12.148157762429	0
386	216073	12.155333998668	47
386	216491	12.160333998668	42
386	216933	12.165333998668	0
386	217398	12.172009205285	51
386	217472	12.177009205285	0
386	218524	12.18324930757	6
386	218560	12.18824930757	0
386	219939	12.200012885193	30
386	219993	12.205012885193	0
386	221234	12.216473033491	26
386	221284	12.221473033491	0
386	222285	12.233847719865	36
386	222467	12.238847719865	0
386	222518	12.24501	1
386	223226	12.25001	39
386	223516	12.25501	26
386	223714	12.26001	0
386	224243	12.269415792612	41
386	224580	12.274415792612	29
386	224734	12.279415792612	0
386	225312	12.289970260365	42
386	225653	12.294970260365	31
386	225951	12.299970260365	0
386	226413	12.310230875982	47
386	227071	12.315230875982	21
386	227109	12.320230875982	0
386	228067	12.334834527614	30
386	228087	12.339834527614	0
386	229040	12.35428203179	36
386	229508	12.35928203179	0
386	229767	12.370806563767	9
386	230405	12.375806563767	7
386	230728	12.380806563767	0
386	231916	12.395110231796	56
386	231946	12.400110231796	0
386	232725	12.411901375566	91
386	232869	12.416901375566	0
386	233639	12.432832239252	96
386	233779	12.437832239252	0
386	234013	12.44936801853	0
386	234586	12.45436801853	62
386	234933	12.45936801853	0
386	235797	12.479093081706	112
386	236150	12.484093081706	0
386	237046	12.509647993341	82
386	237316	12.514647993341	0
386	238154	12.53081904564	78
386	238286	12.53581904564	0
386	239339	12.560867675616	65
386	239479	12.565867675616	0
386	240852	12.591357712565	38
386	240997	12.596357712565	0
386	242364	12.607231993341	99
386	242579	12.612231993341	0
386	243871	12.627268723848	2
386	243913	12.632268723848	0
386	244840	12.644222533842	43
386	245133	12.649222533842	0
386	246176	12.665460375298	19
386	246388	12.670460375298	0
386	247410	12.682119168978	59
386	247638	12.687119168978	0
386	248953	12.700823286593	18
386	249314	12.705823286593	0
386	249915	12.718744610023	28
386	250124	12.723744610023	0
386	251005	12.735572405997	63
386	251006	12.740572405997	0
386	252225	12.75380333349	33
386	252250	12.75880333349	0
386	252902	12.773982639591	34
386	252903	12.778982639591	0
386	254047	12.794068196108	125
386	254268	12.799068196108	0
386	255330	12.812315676974	12
386	255367	12.817315676974	0
386	256327	12.829404072044	51
386	256359	12.834404072044	0
386	257164	12.846145275703	27
386	257181	12.851145275703	0
386	258114	12.862481957161	89
386	258289	12.867481957161	0
386	259196	12.880459369594	34
386	259472	12.885459369594	0
386	260523	12.902545465817	80
386	260535	12.907545465817	0
386	261472	12.919970975832	60
386	261489	12.924970975832	1
386	261513	12.929970975832	0
386	262206	12.937280342356	38
386	262221	12.942280342356	0
386	263083	12.954117158529	113
386	263099	12.959117158529	0
386	263828	12.972168464169	84
386	263976	12.977168464169	0
386	264339	12.988541466555	33
386	265007	12.993541466555	52
386	265021	12.998541466555	0
386	266122	13.011581621763	29
386	266257	13.016581621763	0
386	266858	13.033793712138	44
386	266875	13.038793712138	0
386	267410	13.047092865572	25
386	267419	13.052092865572	0
386	268030	13.064715184835	54
386	268170	13.069715184835	0
386	271376	13.168075382184	0
386	271525	13.173075382184	0
386	272093	13.189689523995	0
386	272231	13.194689523995	0
386	272260	13.20501	1
386	272583	13.21001	0
386	273768	13.226061589717	82
386	274232	13.231061589717	0
386	275747	13.244302502444	28
386	275864	13.249302502444	0
386	277461	13.261115313161	29
386	277551	13.266115313161	0
386	278585	13.277986407502	7
386	278767	13.282986407502	0
386	279531	13.297438029283	45
386	279716	13.302438029283	0
386	280990	13.318591403412	92
386	281098	13.323591403412	0
386	282411	13.33543384758	63
386	282596	13.34043384758	0
386	283866	13.352825208123	69
386	284273	13.357825208123	0
386	285351	13.37035053123	37
386	285539	13.37535053123	0
386	286423	13.388910119377	59
386	286584	13.393910119377	0
386	287603	13.405213084091	76
386	287732	13.410213084091	0
386	288823	13.432665153861	18
386	289694	13.437665153861	59
386	289763	13.442665153861	0
386	292282	13.469656766289	24
386	292328	13.474656766289	0
386	293452	13.489410592433	18
386	293510	13.494410592433	0
386	294546	13.506069865149	80
386	294596	13.511069865149	0
386	295915	13.523024690504	84
386	295936	13.528024690504	0
386	297087	13.5410008274	38
386	297113	13.5460008274	0
386	298096	13.557960213348	68
386	298141	13.562960213348	0
386	298922	13.574993117465	52
386	298942	13.579993117465	0
386	299995	13.604200181752	49
386	300518	13.609200181752	17
386	300535	13.614200181752	0
386	301273	13.626079637226	68
386	301298	13.631079637226	0
386	302122	13.643283332954	105
386	302274	13.648283332954	0
386	302850	13.660806542732	49
386	303127	13.665806542732	28
386	303135	13.670806542732	0
386	303829	13.678356473693	50
386	303842	13.683356473693	0
386	304137	13.692429054317	29
386	304473	13.697429054317	36
386	304606	13.702429054317	0
386	305408	13.718474758428	104
386	305413	13.723474758428	0
386	306134	13.735453747205	117
386	306141	13.740453747205	0
386	307022	13.76112346816	95
386	307023	13.76612346816	0
386	307698	13.777379374003	81
386	307699	13.782379374003	0
386	308243	13.795067637117	0
386	308250	13.800067637117	0
386	308972	13.820273546637	0
386	309113	13.825273546637	0
386	313163	13.92501	1
386	313164	13.93001	0
386	313735	13.942793712741	24
386	313821	13.947793712741	0
386	314893	13.962329248373	120
386	315286	13.967329248373	0
386	316812	13.978690282908	27
386	316915	13.983690282908	0
386	318706	13.995013980125	1
386	319035	14.000013980125	1
386	319080	14.005013980125	0
386	320436	14.011857401032	9
386	320488	14.016857401032	0
386	321491	14.02887899301	6
386	321524	14.03387899301	0
386	322628	14.046776776847	78
386	322962	14.051776776847	0
386	323869	14.063651667228	49
386	324497	14.068651667228	31
386	324637	14.073651667228	0
386	325431	14.082377272864	37
386	326243	14.087377272864	7
386	326292	14.092377272864	0
386	327318	14.099535077347	37
386	327769	14.104535077347	0
386	329090	14.120773937858	35
386	329140	14.125773937858	0
386	330684	14.137556961835	30
386	330748	14.142556961835	0
386	332065	14.155052863435	15
386	332081	14.160052863435	0
386	332870	14.172133574916	25
386	333229	14.177133574916	9
386	333262	14.182133574916	0
386	334188	14.193515866956	62
386	334457	14.198515866956	0
386	335259	14.210313662428	2
386	335294	14.215313662428	0
386	336174	14.224726204739	23
386	336207	14.229726204739	0
386	337351	14.244025031151	67
386	337665	14.249025031151	0
386	337849	14.254025031151	0
386	338635	14.259025031151	59
386	338792	14.264025031151	0
386	339392	14.278694000157	39
386	340086	14.283694000157	50
386	340111	14.288694000157	0
386	340549	14.295321429625	22
386	341148	14.300321429625	30
386	341364	14.305321429625	0
386	341995	14.3166727046	11
386	342008	14.3216727046	0
386	342312	14.327290775817	22
386	343031	14.332290775817	26
386	343316	14.337290775817	0
386	344204	14.34961316013	51
386	344354	14.35461316013	0
386	345321	14.372367877147	75
386	345644	14.377367877147	0
386	346857	14.403998180687	51
386	346993	14.408998180687	0
386	348178	14.425584511759	50
386	348187	14.430584511759	0
386	349635	14.446192511759	100
386	350009	14.451192511759	0
386	352103	14.46428759296	65
386	352331	14.46928759296	0
386	354882	14.480948983147	2
386	355109	14.485948983147	0
386	356783	14.497740653251	6
386	357017	14.502740653251	0
386	358164	14.515152025433	2
386	358522	14.520152025433	0
386	359796	14.531996986403	35
386	360011	14.536996986403	0
386	361128	14.548502067164	46
386	361377	14.553502067164	0
386	362220	14.565139307229	17
386	362246	14.570139307229	0
386	363371	14.581988659446	64
386	363401	14.586988659446	0
386	364457	14.598036652108	57
386	364628	14.603036652108	0
386	365400	14.614784831186	55
386	365747	14.619784831186	10
386	365788	14.624784831186	0
386	366746	14.638793333134	35
386	367244	14.643793333134	7
386	367269	14.648793333134	0
386	368376	14.664332043411	104
386	368655	14.669332043411	0
386	369500	14.676395617925	30
386	369882	14.681395617925	40
386	369992	14.686395617925	0
386	371005	14.692890310683	12
386	371087	14.697890310683	0
386	372461	14.708291943689	58
386	372528	14.713291943689	0
386	373796	14.726879242927	21
386	373841	14.731879242927	0
386	375209	14.745187246894	56
386	375299	14.750187246894	0
386	376527	14.76155915508	28
386	376594	14.76655915508	0
386	377670	14.778926239983	40
386	377858	14.783926239983	0
386	378875	14.795870037138	31
386	379073	14.800870037138	4
386	379131	14.805870037138	0
386	380308	14.81344658137	51
386	380454	14.81844658137	0
386	381216	14.827245923096	8
386	381532	14.832245923096	18
386	381602	14.837245923096	0
386	382593	14.845764120595	69
386	382777	14.850764120595	0
386	384273	14.862127749492	85
386	384364	14.867127749492	0
386	385655	14.878627705421	29
386	385823	14.883627705421	0
386	386996	14.895763218926	37
386	387052	14.900763218926	0
386	387889	14.916097555308	13
386	387943	14.921097555308	0
386	388966	14.931653923096	44
386	389032	14.936653923096	0
386	390011	14.946276311711	61
386	390189	14.951276311711	0
386	391362	14.966712834511	96
386	391392	14.971712834511	0
386	392085	14.983581549697	29
386	392120	14.988581549697	0
386	393230	15.002648185728	61
386	393779	15.007648185728	25
386	393975	15.012648185728	0
386	395458	15.041466832801	22
386	395501	15.046466832801	0
386	396472	15.060189761703	70
386	396502	15.065189761703	0
386	397326	15.077804185493	65
386	397345	15.082804185493	0
386	398123	15.09460773212	89
386	398276	15.09960773212	0
386	399093	15.116093373806	40
386	399379	15.121093373806	24
386	399652	15.126093373806	0
386	400102	15.13335964843	30
386	400110	15.13835964843	0
386	400649	15.143457333854	19
386	400982	15.148457333854	7
386	401288	15.153457333854	0
386	402385	15.172944212466	87
386	402658	15.177944212466	0
386	403206	15.194703107635	3
386	403361	15.199703107635	0
386	403385	15.20501	1
386	403778	15.21001	46
386	404142	15.21501	44
386	404287	15.22001	0
386	405068	15.237301553939	101
386	405077	15.242301553939	0
386	405673	15.247460022644	0
386	405683	15.252460022644	0
386	406475	15.272301393523	0
386	406947	15.277301393523	0
386	408057	15.297676786457	102
386	408426	15.302676786457	0
386	410020	15.31585922439	32
386	410078	15.32085922439	0
386	411902	15.332080032271	1
386	412074	15.337080032271	0
386	413493	15.349341008089	12
386	413556	15.354341008089	0
386	414399	15.366056637875	4
386	414420	15.371056637875	0
386	415585	15.382816728619	140
386	415977	15.387816728619	0
386	417251	15.396311498951	45
386	417360	15.401311498951	0
386	418527	15.416148794415	40
386	418602	15.421148794415	0
386	419805	15.431837275198	88
386	419930	15.436837275198	0
386	420951	15.448097703702	50
386	421270	15.453097703702	0
386	422075	15.465696713191	47
386	422599	15.470696713191	11
386	422640	15.475696713191	0
386	423446	15.482686466093	63
386	423742	15.487686466093	0
386	424992	15.501150179297	89
386	425041	15.506150179297	0
386	426376	15.521161991382	41
386	426422	15.526161991382	0
386	427622	15.538168788631	48
386	427660	15.543168788631	0
386	428836	15.556398361798	68
386	428885	15.561398361798	0
386	429795	15.573095047706	20
386	429822	15.578095047706	0
386	430832	15.590117994168	70
386	430884	15.595117994168	0
386	431910	15.606662886072	81
386	431942	15.611662886072	0
386	432931	15.625931507583	49
386	432951	15.630931507583	0
386	433281	15.636830587115	7
386	433699	15.641830587115	49
386	433719	15.646830587115	0
386	434351	15.656919427512	40
386	434374	15.661919427512	0
386	435097	15.673787014035	44
386	435369	15.678787014035	0
386	435557	15.685072453592	9
386	435578	15.690072453592	0
386	436406	15.696220552493	44
386	436422	15.701220552493	0
386	437342	15.714936461197	62
386	437360	15.719936461197	0
386	438173	15.733958657921	65
386	438313	15.738958657921	0
386	439037	15.750598909883	56
386	439046	15.755598909883	0
386	439823	15.769684002076	70
386	439831	15.774684002076	0
386	440533	15.788167813489	50
386	440535	15.793167813489	0
386	441118	15.805109393785	0
386	441259	15.810109393785	0
386	442809	15.849365412445	0
386	442947	15.854365412445	0
386	443656	15.872853400016	0
386	443798	15.877853400016	0
386	443829	15.88501	1
386	443853	15.89001	0
386	445764	15.918909407667	28
386	446338	15.923909407667	0
386	447156	15.938251642922	18
386	447314	15.943251642922	0
386	448149	15.960332025619	38
386	448349	15.965332025619	0
386	448681	15.970332025619	0
386	449791	15.980195239192	40
386	449899	15.985195239192	0
386	451226	15.998173763895	14
386	451536	16.003173763895	1
386	451550	16.008173763895	0
386	452526	16.015242767913	11
386	452947	16.020242767913	0
386	453429	16.033053514552	4
386	454004	16.038053514552	14
386	454659	16.043053514552	0
386	455585	16.058917631247	55
386	455951	16.063917631247	0
386	456637	16.075353653399	39
386	457377	16.080353653399	2
386	457450	16.085353653399	0
386	458045	16.092293636969	44
386	458727	16.097293636969	7
386	458779	16.102293636969	0
386	459388	16.108804274136	45
386	460009	16.113804274136	17
386	460076	16.118804274136	0
386	460647	16.125404047095	40
386	461388	16.130404047095	64
386	461537	16.135404047095	0
386	462100	16.141701320224	29
386	462699	16.146701320224	14
386	462761	16.151701320224	0
386	463480	16.159604688348	0
386	464204	16.164604688348	54
386	464256	16.169604688348	0
386	465040	16.17609995318	3
386	465450	16.18109995318	34
386	465512	16.18609995318	0
386	466399	16.191729429688	24
386	466574	16.196729429688	0
386	467290	16.20802746108	36
386	467529	16.21302746108	12
386	467690	16.21802746108	0
386	468468	16.225526056281	59
386	468773	16.230526056281	17
386	468824	16.235526056281	0
386	469580	16.2417449612	51
386	469768	16.2467449612	0
386	470565	16.258821291361	76
386	471010	16.263821291361	18
386	471057	16.268821291361	0
386	471592	16.275177937954	37
386	471915	16.280177937954	29
386	472078	16.285177937954	0
386	472709	16.293551719626	48
386	473032	16.298551719626	33
386	473194	16.303551719626	0
386	473676	16.309919913847	44
386	473963	16.314919913847	0
386	474817	16.32254140111	36
386	475150	16.32754140111	7
386	475321	16.33254140111	0
386	475783	16.343877977703	18
386	476434	16.348877977703	34
386	476595	16.353877977703	0
386	477602	16.369071148981	71
386	477632	16.374071148981	0
386	478603	16.38932045479	61
386	478625	16.39432045479	0
386	479683	16.407205396115	55
386	479859	16.412205396115	0
386	480690	16.427005415722	41
386	480715	16.432005415722	0
386	481751	16.44381985009	87
386	482084	16.44881985009	0
386	483675	16.46418501836	110
386	484333	16.46918501836	0
386	486370	16.481556662626	60
386	486463	16.486556662626	0
386	487947	16.498407878776	6
386	487994	16.503407878776	0
386	489151	16.513756700892	17
386	489352	16.518756700892	0
386	490104	16.531780662626	10
386	490131	16.536780662626	0
386	491539	16.548851950452	90
386	491700	16.553851950452	0
386	492983	16.565186664529	37
386	493067	16.570186664529	0
386	494766	16.581847961584	18
386	494822	16.586847961584	0
386	495708	16.598492360297	23
386	495888	16.603492360297	0
386	496654	16.614846842647	16
386	497217	16.619846842647	29
386	497444	16.624846842647	0
386	498017	16.631558006157	15
386	498174	16.636558006157	0
386	498360	16.64501	1
386	498871	16.65001	31
386	499347	16.65501	36
386	499565	16.66001	0
386	499888	16.667441881062	8
386	500606	16.672441881062	51
386	500786	16.677441881062	0
386	501571	16.689166346337	54
386	502032	16.694166346337	28
386	502066	16.699166346337	0
386	502611	16.70827568677	9
386	503027	16.71327568677	21
386	503050	16.71827568677	0
386	503530	16.725066218382	26
386	503971	16.730066218382	26
386	504002	16.735066218382	0
386	504401	16.742599776767	38
386	505155	16.747599776767	40
386	505181	16.752599776767	0
386	506216	16.765329234404	53
386	506248	16.770329234404	0
386	507278	16.784299954556	85
386	507312	16.789299954556	0
386	508207	16.800861415513	83
386	508229	16.805861415513	0
386	509220	16.817692530703	113
386	509225	16.822692530703	0
386	510229	16.834723291009	47
386	510289	16.839723291009	0
386	511168	16.851772593419	19
386	511190	16.856772593419	0
386	511972	16.868693677285	61
386	512112	16.873693677285	0
386	512353	16.884789397168	13
386	513100	16.889789397168	67
386	513119	16.894789397168	0
386	513730	16.908673721631	43
386	513865	16.913673721631	0
386	514681	16.929499235857	75
386	514685	16.934499235857	0
386	516275	16.977474452824	120
386	516410	16.982474452824	0
386	518220	17.002133316474	162
386	518876	17.007133316474	0
386	520789	17.019932498485	16
386	520896	17.024932498485	0
386	522456	17.036555544597	34
386	522556	17.041555544597	0
386	523851	17.053259558039	98
386	524074	17.058259558039	0
386	525340	17.068812713182	54
386	525973	17.073812713182	0
386	526328	17.08599662626	8
386	527312	17.09099662626	26
386	527362	17.09599662626	0
386	528457	17.108245329673	59
386	528567	17.113245329673	0
386	529497	17.126282142539	26
386	529541	17.131282142539	0
386	530311	17.137776766998	91
386	530859	17.142776766998	0
386	532141	17.160776135749	47
386	532602	17.165776135749	0
386	533403	17.179062016083	44
386	534034	17.184062016083	0
386	534372	17.195970076378	23
386	535193	17.200970076378	38
386	535263	17.205970076378	0
386	536377	17.218157060112	51
386	536404	17.223157060112	0
386	537457	17.234514841278	51
386	537496	17.239514841278	0
386	538913	17.251565878468	174
386	539414	17.256565878468	0
386	540687	17.268705845126	47
386	540939	17.273705845126	7
386	541132	17.278705845126	0
386	542181	17.286780943992	7
386	542265	17.291780943992	0
386	543080	17.298981737863	46
386	543515	17.303981737863	0
386	544618	17.320681478483	70
386	544804	17.325681478483	0
386	546170	17.337936735751	56
386	546378	17.342936735751	1
386	546463	17.347936735751	0
386	547651	17.355507916468	13
386	547750	17.360507916468	0
386	549006	17.372259097935	13
386	549084	17.377259097935	0
386	550540	17.388857056529	32
386	550680	17.393857056529	0
386	552277	17.405653081861	31
386	552343	17.410653081861	0
386	553754	17.422356599088	18
386	553805	17.427356599088	0
386	555139	17.439206738774	34
386	555216	17.444206738774	0
386	556566	17.455996837911	39
386	556615	17.460996837911	0
386	557708	17.473925427889	13
386	557765	17.478925427889	0
386	559110	17.490305775989	83
386	559151	17.495305775989	0
386	560179	17.506624465159	8
386	560368	17.511624465159	0
386	561112	17.52299627217	62
386	561678	17.52799627217	3
386	561748	17.53299627217	0
386	562626	17.543912796174	68
386	563041	17.548912796174	0
386	564215	17.564544054372	38
386	564260	17.569544054372	0
386	565106	17.582340294195	6
386	565148	17.587340294195	0
386	566100	17.599401707232	8
386	566136	17.604401707232	0
386	566770	17.618393233382	39
386	566799	17.623393233382	0
386	567574	17.632303255806	60
386	567866	17.637303255806	0
386	569212	17.656689710227	49
386	569230	17.661689710227	0
386	570266	17.673185747593	19
386	570274	17.678185747593	0
386	571082	17.690985029194	27
386	571095	17.695985029194	0
386	572018	17.707711527672	86
386	572030	17.712711527672	0
386	572782	17.725273118623	55
386	572915	17.730273118623	0
386	573625	17.740812657863	16
386	573640	17.745812657863	0
386	574431	17.761227301956	63
386	574586	17.766227301956	0
386	575568	17.789873724397	0
386	575710	17.794873724397	0
386	576954	17.818132219488	60
386	576959	17.823132219488	0
386	579382	17.881300710073	0
386	579653	17.886300710073	0
386	580297	17.904817703044	34
386	580315	17.909817703044	0