version 2
run General-0-20120906-16:17:45-1356
attr configname General
attr datetime 20120906-16:17:45
attr experiment General
attr inifile omnetpp.ini
attr iterationvars ""
attr iterationvars2 $repetition=0
attr measurement ""
attr network csma802154net
attr processid 1356
attr repetition 0
attr replication #0
attr resultdir results
attr runnumber 0
attr seedset 0

vector 386  csma802154net.dataCentricNetworkMan  RREQPacketFrequency  ETV
vector 387  csma802154net.dataCentricNetworkMan  DiscoveryPacketFrequency  ETV
vector 388  csma802154net.dataCentricNetworkMan  RegisterPacketFrequency  ETV
vector 389  csma802154net.dataCentricNetworkMan  RReplyPacketFrequency  ETV
vector 390  csma802154net.dataCentricNetworkMan  AODVDataPacketFrequency  ETV
386	1142	1.005	0
386	1143	1.01	0
386	6549	1.015948003907	1
386	10065	1.020948003907	0
386	11075	1.025948003907	0
386	15751	1.050680026441	0
386	16602	1.055680026441	0
386	18318	1.070256028646	6
386	19192	1.075256028646	0
386	26060	1.13162402545	23
386	27270	1.13662402545	0
386	28727	1.156088813825	19
386	29705	1.161088813825	0
386	31500	1.181719066611	21
386	31969	1.186719066611	0
386	35329	1.217324379011	13
386	35491	1.222324379011	0
386	36634	1.236538864292	9
386	36980	1.241538864292	0
386	38206	1.254144023905	13
386	38219	1.259144023905	0
386	42380	1.292032012789	81
386	43134	1.297032012789	0
386	44758	1.311712608098	3
386	44948	1.316712608098	0
386	45848	1.328280699264	24
386	46321	1.333280699264	25
386	46386	1.338280699264	0
386	47286	1.345337659907	14
386	47853	1.350337659907	0
386	48520	1.362018613823	40
386	49073	1.367018613823	37
386	49402	1.372018613823	0
386	49829	1.378453525265	32
386	50655	1.383453525265	40
386	50720	1.388453525265	0
386	51930	1.402949340823	64
386	51970	1.407949340823	0
386	52983	1.420358651939	38
386	53049	1.425358651939	0
386	54123	1.436673260611	80
386	54334	1.441673260611	0
386	55170	1.453012768557	2
386	55599	1.458012768557	24
386	55644	1.463012768557	0
386	56697	1.470563168011	28
386	56731	1.475563168011	0
386	57658	1.4897061095	46
386	57710	1.4947061095	0
386	58717	1.506779714666	38
386	59096	1.511779714666	3
386	59289	1.516779714666	0
386	60014	1.527149231061	39
386	60282	1.532149231061	15
386	60337	1.537149231061	0
386	61200	1.543934034701	46
386	61357	1.548934034701	0
386	62189	1.562734284499	26
386	62223	1.567734284499	0
386	63058	1.580736010199	66
386	63123	1.585736010199	0
386	63884	1.594364036321	81
386	64045	1.599364036321	0
386	65048	1.615054685326	72
386	65274	1.620054685326	15
386	65291	1.625054685326	0
386	66054	1.632542722941	58
386	66092	1.637542722941	0
386	66719	1.649144012051	53
386	67079	1.654144012051	16
386	67256	1.659144012051	0
386	68291	1.674424011017	80
386	68296	1.679424011017	0
386	69293	1.694135039743	78
386	69325	1.699135039743	0
386	70174	1.710892664818	82
386	70196	1.715892664818	0
386	70998	1.728806972707	70
386	71005	1.733806972707	0
386	71734	1.74668726429	48
386	71743	1.75168726429	0
386	72609	1.76691823142	116
386	72613	1.77191823142	0
386	73279	1.783437872828	105
386	73551	1.788437872828	0
386	74125	1.806800653247	43
386	74263	1.811800653247	0
386	75000	1.830415346683	120
386	75001	1.835415346683	0
386	75837	1.860784403621	114
386	75838	1.865784403621	0
386	76718	1.899601761569	122
386	76719	1.904601761569	0
386	77486	3.815968024681	1
386	77487	3.820968024681	0
386	78661	3.834996634347	115
386	79040	3.839996634347	0
386	80793	3.853060400243	47
386	81010	3.858060400243	0
386	82359	3.869777578132	10
386	82439	3.874777578132	0
386	83718	3.886285854767	65
386	83847	3.891285854767	0
386	85181	3.913206118368	7
386	85800	3.918206118368	28
386	85993	3.923206118368	0
386	86961	3.935533766634	52
386	87043	3.940533766634	0
386	87581	3.948441239776	24
386	88269	3.953441239776	35
386	88573	3.958441239776	14
386	88647	3.963441239776	0
386	89541	3.970331966593	52
386	89658	3.975331966593	0
386	90705	3.984536554923	55
386	90761	3.989536554923	0
386	92302	4.001928886756	35
386	92355	4.006928886756	0
386	93904	4.019472261477	2
386	93934	4.024472261477	0
386	95405	4.03624647886	24
386	95434	4.04124647886	0
386	96355	4.053502646957	17
386	96398	4.058502646957	0
386	97605	4.071105744045	50
386	97649	4.076105744045	0
386	98740	4.085790851441	29
386	98900	4.090790851441	0
386	99931	4.105279221953	37
386	99973	4.110279221953	0
386	100692	4.122743796672	74
386	100839	4.127743796672	0
386	101883	4.144647680991	48
386	102340	4.149647680991	5
386	102366	4.154647680991	0
386	103035	4.160750851439	16
386	103819	4.165750851439	43
386	104302	4.170750851439	0
386	105415	4.187279251251	40
386	106405	4.192279251251	0
386	106586	4.197279251251	0
386	108100	4.204330899568	28
386	109311	4.209330899568	0
386	109578	4.214330899568	0
386	110261	4.223986920733	1
386	111257	4.228986920733	57
386	111914	4.233986920733	0
386	112706	4.238986920733	0
386	113624	4.243986920733	0
386	115669	4.260198924698	24
386	116494	4.265198924698	0
386	118968	4.293947843172	31
386	119624	4.298947843172	0
386	120778	4.310075035579	3
386	121727	4.315075035579	0
386	122354	4.320075035579	0
386	123868	4.327522883418	0
386	125088	4.332522883418	0
386	126945	4.352882933694	16
386	127542	4.357882933694	0
386	128940	4.371485469023	34
386	129285	4.376485469023	0
386	130167	4.39111604938	34
386	130246	4.39611604938	0
386	130796	4.401785745193	46
386	131605	4.406785745193	21
386	132080	4.411785745193	0
386	134148	4.427758725032	30
386	134181	4.432758725032	0
386	135109	4.44686091328	11
386	135166	4.45186091328	0
386	137770	4.483126937745	13
386	138202	4.488126937745	0
386	140061	4.519202899113	14
386	140238	4.524202899113	0
386	141693	4.542742959111	19
386	141998	4.547742959111	0
386	142847	4.560117549701	6
386	143007	4.565117549701	0
386	144222	4.577092871577	49
386	144490	4.582092871577	0
386	145510	4.594714934224	26
386	145747	4.599714934224	0
386	146640	4.612213293434	8
386	146661	4.617213293434	0
386	147260	4.626099038271	20
386	147585	4.631099038271	0
386	148702	4.645564842866	107
386	148921	4.650564842866	0
386	150134	4.664978880844	17
386	150195	4.669978880844	0
386	151069	4.679367832613	3
386	151132	4.684367832613	0
386	152255	4.695880610106	97
386	152422	4.700880610106	0
386	153596	4.712910907858	54
386	153663	4.717910907858	0
386	155011	4.72960210673	58
386	155045	4.73460210673	0
386	156127	4.74619532328	24
386	156290	4.75119532328	0
386	157338	4.764756692301	45
386	157375	4.769756692301	0
386	158191	4.782019724993	26
386	158360	4.787019724993	0
386	158874	4.798944566154	26
386	159400	4.803944566154	41
386	159453	4.808944566154	0
386	160386	4.820801503157	0
386	160415	4.825801503157	0
386	161352	4.833728050775	8
386	161827	4.838728050775	0
386	162886	4.854055165545	43
386	163058	4.859055165545	0
386	163918	4.871829981526	32
386	164209	4.876829981526	0
386	165127	4.888321205421	55
386	165411	4.893321205421	0
386	166360	4.906607793227	48
386	166383	4.911607793227	0
386	167288	4.926199643119	120
386	167428	4.931199643119	0
386	167765	4.946325854722	20
386	168381	4.951325854722	67
386	168522	4.956325854722	0
386	169058	4.968160227836	40
386	169557	4.973160227836	41
386	169575	4.978160227836	0
386	169930	4.986086685777	36
386	170449	4.991086685777	48
386	170588	4.996086685777	0
386	171632	5.007881805663	66
386	171768	5.012881805663	0
386	172489	5.026841689827	81
386	172635	5.031841689827	0
386	173641	5.049430903307	118
386	173642	5.054430903307	0
386	174490	5.067400070769	40
386	174632	5.072400070769	0
386	175347	5.088848078236	0
386	175656	5.093848078236	0
386	176812	5.111256092176	0
386	176822	5.116256092176	0
386	177677	5.137542551441	115
386	177819	5.142542551441	0
386	178383	5.152211527837	0
386	178387	5.157211527837	0
386	179087	5.204384102211	0
386	179091	5.209384102211	0
386	180459	5.246400161608	0
386	180604	5.251400161608	0
386	181261	5.270006948538	104
386	181396	5.275006948538	0
386	181955	5.286112175547	0
386	182093	5.291112175547	0
386	182778	5.300760183014	0
386	182914	5.305760183014	0
386	183633	5.315088203009	0
386	183638	5.320088203009	0
386	186778	5.403264180161	102
386	186779	5.408264180161	0
386	187372	5.414192186391	0
386	187508	5.419192186391	0
386	188069	5.428520204229	0
386	188073	5.433520204229	0
386	195498	15.246751664332	0
386	195499	15.251751664332	0
386	196977	15.28542586157	0
386	196978	15.29042586157	0
386	197541	15.299954625953	0
386	197676	15.304954625953	0
386	203500	24.836833001486	0
386	203501	24.841833001486	0
386	204239	24.85574875922	0
386	204240	24.86074875922	0
386	204831	24.870148080019	0
386	204969	24.875148080019	0
387	1142	1.005	1
387	1143	1.01	0
387	6549	1.015948003907	103
387	10065	1.020948003907	1
387	11075	1.025948003907	0
387	15751	1.050680026441	21
387	16602	1.055680026441	0
387	18318	1.070256028646	0
387	19192	1.075256028646	0
387	26060	1.13162402545	0
387	27270	1.13662402545	0
387	28727	1.156088813825	0
387	29705	1.161088813825	0
387	31500	1.181719066611	0
387	31969	1.186719066611	0
387	35329	1.217324379011	0
387	35491	1.222324379011	0
387	36634	1.236538864292	0
387	36980	1.241538864292	0
387	38206	1.254144023905	0
387	38219	1.259144023905	0
387	42380	1.292032012789	0
387	43134	1.297032012789	0
387	44758	1.311712608098	0
387	44948	1.316712608098	0
387	45848	1.328280699264	0
387	46321	1.333280699264	0
387	46386	1.338280699264	0
387	47286	1.345337659907	0
387	47853	1.350337659907	0
387	48520	1.362018613823	0
387	49073	1.367018613823	0
387	49402	1.372018613823	0
387	49829	1.378453525265	0
387	50655	1.383453525265	0
387	50720	1.388453525265	0
387	51930	1.402949340823	0
387	51970	1.407949340823	0
387	52983	1.420358651939	0
387	53049	1.425358651939	0
387	54123	1.436673260611	0
387	54334	1.441673260611	0
387	55170	1.453012768557	0
387	55599	1.458012768557	0
387	55644	1.463012768557	0
387	56697	1.470563168011	0
387	56731	1.475563168011	0
387	57658	1.4897061095	0
387	57710	1.4947061095	0
387	58717	1.506779714666	0
387	59096	1.511779714666	0
387	59289	1.516779714666	0
387	60014	1.527149231061	0
387	60282	1.532149231061	0
387	60337	1.537149231061	0
387	61200	1.543934034701	0
387	61357	1.548934034701	0
387	62189	1.562734284499	0
387	62223	1.567734284499	0
387	63058	1.580736010199	0
387	63123	1.585736010199	0
387	63884	1.594364036321	0
387	64045	1.599364036321	0
387	65048	1.615054685326	0
387	65274	1.620054685326	0
387	65291	1.625054685326	0
387	66054	1.632542722941	0
387	66092	1.637542722941	0
387	66719	1.649144012051	0
387	67079	1.654144012051	0
387	67256	1.659144012051	0
387	68291	1.674424011017	0
387	68296	1.679424011017	0
387	69293	1.694135039743	0
387	69325	1.699135039743	0
387	70174	1.710892664818	0
387	70196	1.715892664818	0
387	70998	1.728806972707	0
387	71005	1.733806972707	0
387	71734	1.74668726429	0
387	71743	1.75168726429	0
387	72609	1.76691823142	0
387	72613	1.77191823142	0
387	73279	1.783437872828	0
387	73551	1.788437872828	0
387	74125	1.806800653247	0
387	74263	1.811800653247	0
387	75000	1.830415346683	0
387	75001	1.835415346683	0
387	75837	1.860784403621	0
387	75838	1.865784403621	0
387	76718	1.899601761569	0
387	76719	1.904601761569	0
387	77486	3.815968024681	0
387	77487	3.820968024681	0
387	78661	3.834996634347	0
387	79040	3.839996634347	0
387	80793	3.853060400243	0
387	81010	3.858060400243	0
387	82359	3.869777578132	0
387	82439	3.874777578132	0
387	83718	3.886285854767	0
387	83847	3.891285854767	0
387	85181	3.913206118368	0
387	85800	3.918206118368	0
387	85993	3.923206118368	0
387	86961	3.935533766634	0
387	87043	3.940533766634	0
387	87581	3.948441239776	0
387	88269	3.953441239776	0
387	88573	3.958441239776	0
387	88647	3.963441239776	0
387	89541	3.970331966593	0
387	89658	3.975331966593	0
387	90705	3.984536554923	0
387	90761	3.989536554923	0
387	92302	4.001928886756	1
387	92355	4.006928886756	0
387	93904	4.019472261477	0
387	93934	4.024472261477	0
387	95405	4.03624647886	0
387	95434	4.04124647886	0
387	96355	4.053502646957	0
387	96398	4.058502646957	0
387	97605	4.071105744045	0
387	97649	4.076105744045	0
387	98740	4.085790851441	0
387	98900	4.090790851441	0
387	99931	4.105279221953	0
387	99973	4.110279221953	0
387	100692	4.122743796672	0
387	100839	4.127743796672	0
387	101883	4.144647680991	0
387	102340	4.149647680991	0
387	102366	4.154647680991	0
387	103035	4.160750851439	8
387	103819	4.165750851439	15
387	104302	4.170750851439	0
387	105415	4.187279251251	0
387	106405	4.192279251251	20
387	106586	4.197279251251	0
387	108100	4.204330899568	12
387	109311	4.209330899568	24
387	109578	4.214330899568	0
387	110261	4.223986920733	8
387	111257	4.228986920733	1
387	111914	4.233986920733	3
387	112706	4.238986920733	16
387	113624	4.243986920733	0
387	115669	4.260198924698	3
387	116494	4.265198924698	0
387	118968	4.293947843172	0
387	119624	4.298947843172	0
387	120778	4.310075035579	0
387	121727	4.315075035579	11
387	122354	4.320075035579	0
387	123868	4.327522883418	2
387	125088	4.332522883418	0
387	126945	4.352882933694	0
387	127542	4.357882933694	0
387	128940	4.371485469023	0
387	129285	4.376485469023	0
387	130167	4.39111604938	0
387	130246	4.39611604938	0
387	130796	4.401785745193	0
387	131605	4.406785745193	1
387	132080	4.411785745193	0
387	134148	4.427758725032	0
387	134181	4.432758725032	0
387	135109	4.44686091328	0
387	135166	4.45186091328	0
387	137770	4.483126937745	0
387	138202	4.488126937745	0
387	140061	4.519202899113	1
387	140238	4.524202899113	0
387	141693	4.542742959111	0
387	141998	4.547742959111	0
387	142847	4.560117549701	0
387	143007	4.565117549701	0
387	144222	4.577092871577	0
387	144490	4.582092871577	0
387	145510	4.594714934224	0
387	145747	4.599714934224	0
387	146640	4.612213293434	0
387	146661	4.617213293434	0
387	147260	4.626099038271	0
387	147585	4.631099038271	0
387	148702	4.645564842866	0
387	148921	4.650564842866	0
387	150134	4.664978880844	0
387	150195	4.669978880844	0
387	151069	4.679367832613	0
387	151132	4.684367832613	0
387	152255	4.695880610106	0
387	152422	4.700880610106	0
387	153596	4.712910907858	0
387	153663	4.717910907858	0
387	155011	4.72960210673	0
387	155045	4.73460210673	0
387	156127	4.74619532328	0
387	156290	4.75119532328	0
387	157338	4.764756692301	0
387	157375	4.769756692301	0
387	158191	4.782019724993	0
387	158360	4.787019724993	0
387	158874	4.798944566154	0
387	159400	4.803944566154	0
387	159453	4.808944566154	0
387	160386	4.820801503157	0
387	160415	4.825801503157	0
387	161352	4.833728050775	0
387	161827	4.838728050775	0
387	162886	4.854055165545	0
387	163058	4.859055165545	0
387	163918	4.871829981526	0
387	164209	4.876829981526	0
387	165127	4.888321205421	0
387	165411	4.893321205421	0
387	166360	4.906607793227	0
387	166383	4.911607793227	0
387	167288	4.926199643119	0
387	167428	4.931199643119	0
387	167765	4.946325854722	0
387	168381	4.951325854722	0
387	168522	4.956325854722	0
387	169058	4.968160227836	0
387	169557	4.973160227836	0
387	169575	4.978160227836	0
387	169930	4.986086685777	0
387	170449	4.991086685777	0
387	170588	4.996086685777	0
387	171632	5.007881805663	0
387	171768	5.012881805663	0
387	172489	5.026841689827	0
387	172635	5.031841689827	0
387	173641	5.049430903307	0
387	173642	5.054430903307	0
387	174490	5.067400070769	0
387	174632	5.072400070769	0
387	175347	5.088848078236	0
387	175656	5.093848078236	0
387	176812	5.111256092176	0
387	176822	5.116256092176	0
387	177677	5.137542551441	0
387	177819	5.142542551441	0
387	178383	5.152211527837	0
387	178387	5.157211527837	0
387	179087	5.204384102211	0
387	179091	5.209384102211	0
387	180459	5.246400161608	0
387	180604	5.251400161608	0
387	181261	5.270006948538	0
387	181396	5.275006948538	0
387	181955	5.286112175547	0
387	182093	5.291112175547	0
387	182778	5.300760183014	0
387	182914	5.305760183014	0
387	183633	5.315088203009	0
387	183638	5.320088203009	0
387	186778	5.403264180161	0
387	186779	5.408264180161	0
387	187372	5.414192186391	0
387	187508	5.419192186391	0
387	188069	5.428520204229	0
387	188073	5.433520204229	0
387	195498	15.246751664332	0
387	195499	15.251751664332	0
387	196977	15.28542586157	0
387	196978	15.29042586157	0
387	197541	15.299954625953	0
387	197676	15.304954625953	0
387	203500	24.836833001486	0
387	203501	24.841833001486	0
387	204239	24.85574875922	0
387	204240	24.86074875922	0
387	204831	24.870148080019	0
387	204969	24.875148080019	0
388	1142	1.005	1
388	1143	1.01	0
388	6549	1.015948003907	0
388	10065	1.020948003907	0
388	11075	1.025948003907	0
388	15751	1.050680026441	0
388	16602	1.055680026441	0
388	18318	1.070256028646	0
388	19192	1.075256028646	0
388	26060	1.13162402545	0
388	27270	1.13662402545	0
388	28727	1.156088813825	0
388	29705	1.161088813825	0
388	31500	1.181719066611	0
388	31969	1.186719066611	0
388	35329	1.217324379011	0
388	35491	1.222324379011	0
388	36634	1.236538864292	0
388	36980	1.241538864292	0
388	38206	1.254144023905	0
388	38219	1.259144023905	0
388	42380	1.292032012789	0
388	43134	1.297032012789	0
388	44758	1.311712608098	0
388	44948	1.316712608098	0
388	45848	1.328280699264	0
388	46321	1.333280699264	0
388	46386	1.338280699264	0
388	47286	1.345337659907	0
388	47853	1.350337659907	0
388	48520	1.362018613823	0
388	49073	1.367018613823	0
388	49402	1.372018613823	0
388	49829	1.378453525265	0
388	50655	1.383453525265	0
388	50720	1.388453525265	0
388	51930	1.402949340823	0
388	51970	1.407949340823	0
388	52983	1.420358651939	0
388	53049	1.425358651939	0
388	54123	1.436673260611	0
388	54334	1.441673260611	0
388	55170	1.453012768557	0
388	55599	1.458012768557	0
388	55644	1.463012768557	0
388	56697	1.470563168011	0
388	56731	1.475563168011	0
388	57658	1.4897061095	0
388	57710	1.4947061095	0
388	58717	1.506779714666	0
388	59096	1.511779714666	0
388	59289	1.516779714666	0
388	60014	1.527149231061	0
388	60282	1.532149231061	0
388	60337	1.537149231061	0
388	61200	1.543934034701	0
388	61357	1.548934034701	0
388	62189	1.562734284499	0
388	62223	1.567734284499	0
388	63058	1.580736010199	0
388	63123	1.585736010199	0
388	63884	1.594364036321	0
388	64045	1.599364036321	0
388	65048	1.615054685326	0
388	65274	1.620054685326	0
388	65291	1.625054685326	0
388	66054	1.632542722941	0
388	66092	1.637542722941	0
388	66719	1.649144012051	0
388	67079	1.654144012051	0
388	67256	1.659144012051	0
388	68291	1.674424011017	0
388	68296	1.679424011017	0
388	69293	1.694135039743	0
388	69325	1.699135039743	0
388	70174	1.710892664818	0
388	70196	1.715892664818	0
388	70998	1.728806972707	0
388	71005	1.733806972707	0
388	71734	1.74668726429	0
388	71743	1.75168726429	0
388	72609	1.76691823142	0
388	72613	1.77191823142	0
388	73279	1.783437872828	0
388	73551	1.788437872828	0
388	74125	1.806800653247	0
388	74263	1.811800653247	0
388	75000	1.830415346683	0
388	75001	1.835415346683	0
388	75837	1.860784403621	0
388	75838	1.865784403621	0
388	76718	1.899601761569	0
388	76719	1.904601761569	0
388	77486	3.815968024681	0
388	77487	3.820968024681	0
388	78661	3.834996634347	0
388	79040	3.839996634347	0
388	80793	3.853060400243	0
388	81010	3.858060400243	0
388	82359	3.869777578132	0
388	82439	3.874777578132	0
388	83718	3.886285854767	0
388	83847	3.891285854767	0
388	85181	3.913206118368	0
388	85800	3.918206118368	0
388	85993	3.923206118368	0
388	86961	3.935533766634	0
388	87043	3.940533766634	0
388	87581	3.948441239776	0
388	88269	3.953441239776	0
388	88573	3.958441239776	0
388	88647	3.963441239776	0
388	89541	3.970331966593	0
388	89658	3.975331966593	0
388	90705	3.984536554923	0
388	90761	3.989536554923	0
388	92302	4.001928886756	0
388	92355	4.006928886756	0
388	93904	4.019472261477	0
388	93934	4.024472261477	0
388	95405	4.03624647886	0
388	95434	4.04124647886	0
388	96355	4.053502646957	0
388	96398	4.058502646957	0
388	97605	4.071105744045	0
388	97649	4.076105744045	0
388	98740	4.085790851441	0
388	98900	4.090790851441	0
388	99931	4.105279221953	0
388	99973	4.110279221953	0
388	100692	4.122743796672	0
388	100839	4.127743796672	0
388	101883	4.144647680991	0
388	102340	4.149647680991	0
388	102366	4.154647680991	0
388	103035	4.160750851439	0
388	103819	4.165750851439	0
388	104302	4.170750851439	0
388	105415	4.187279251251	0
388	106405	4.192279251251	0
388	106586	4.197279251251	0
388	108100	4.204330899568	0
388	109311	4.209330899568	0
388	109578	4.214330899568	0
388	110261	4.223986920733	0
388	111257	4.228986920733	0
388	111914	4.233986920733	0
388	112706	4.238986920733	0
388	113624	4.243986920733	0
388	115669	4.260198924698	0
388	116494	4.265198924698	0
388	118968	4.293947843172	0
388	119624	4.298947843172	0
388	120778	4.310075035579	0
388	121727	4.315075035579	0
388	122354	4.320075035579	0
388	123868	4.327522883418	0
388	125088	4.332522883418	0
388	126945	4.352882933694	0
388	127542	4.357882933694	0
388	128940	4.371485469023	0
388	129285	4.376485469023	0
388	130167	4.39111604938	0
388	130246	4.39611604938	0
388	130796	4.401785745193	0
388	131605	4.406785745193	0
388	132080	4.411785745193	0
388	134148	4.427758725032	0
388	134181	4.432758725032	0
388	135109	4.44686091328	0
388	135166	4.45186091328	0
388	137770	4.483126937745	0
388	138202	4.488126937745	0
388	140061	4.519202899113	0
388	140238	4.524202899113	0
388	141693	4.542742959111	0
388	141998	4.547742959111	0
388	142847	4.560117549701	0
388	143007	4.565117549701	0
388	144222	4.577092871577	0
388	144490	4.582092871577	0
388	145510	4.594714934224	0
388	145747	4.599714934224	0
388	146640	4.612213293434	0
388	146661	4.617213293434	0
388	147260	4.626099038271	0
388	147585	4.631099038271	0
388	148702	4.645564842866	0
388	148921	4.650564842866	0
388	150134	4.664978880844	0
388	150195	4.669978880844	0
388	151069	4.679367832613	0
388	151132	4.684367832613	0
388	152255	4.695880610106	0
388	152422	4.700880610106	0
388	153596	4.712910907858	0
388	153663	4.717910907858	0
388	155011	4.72960210673	0
388	155045	4.73460210673	0
388	156127	4.74619532328	0
388	156290	4.75119532328	0
388	157338	4.764756692301	0
388	157375	4.769756692301	0
388	158191	4.782019724993	0
388	158360	4.787019724993	0
388	158874	4.798944566154	0
388	159400	4.803944566154	0
388	159453	4.808944566154	0
388	160386	4.820801503157	0
388	160415	4.825801503157	0
388	161352	4.833728050775	0
388	161827	4.838728050775	0
388	162886	4.854055165545	0
388	163058	4.859055165545	0
388	163918	4.871829981526	0
388	164209	4.876829981526	0
388	165127	4.888321205421	0
388	165411	4.893321205421	0
388	166360	4.906607793227	0
388	166383	4.911607793227	0
388	167288	4.926199643119	0
388	167428	4.931199643119	0
388	167765	4.946325854722	0
388	168381	4.951325854722	0
388	168522	4.956325854722	0
388	169058	4.968160227836	0
388	169557	4.973160227836	0
388	169575	4.978160227836	0
388	169930	4.986086685777	0
388	170449	4.991086685777	0
388	170588	4.996086685777	0
388	171632	5.007881805663	0
388	171768	5.012881805663	0
388	172489	5.026841689827	0
388	172635	5.031841689827	0
388	173641	5.049430903307	0
388	173642	5.054430903307	0
388	174490	5.067400070769	0
388	174632	5.072400070769	0
388	175347	5.088848078236	0
388	175656	5.093848078236	0
388	176812	5.111256092176	0
388	176822	5.116256092176	0
388	177677	5.137542551441	0
388	177819	5.142542551441	0
388	178383	5.152211527837	0
388	178387	5.157211527837	0
388	179087	5.204384102211	0
388	179091	5.209384102211	0
388	180459	5.246400161608	0
388	180604	5.251400161608	0
388	181261	5.270006948538	0
388	181396	5.275006948538	0
388	181955	5.286112175547	0
388	182093	5.291112175547	0
388	182778	5.300760183014	0
388	182914	5.305760183014	0
388	183633	5.315088203009	0
388	183638	5.320088203009	0
388	186778	5.403264180161	0
388	186779	5.408264180161	0
388	187372	5.414192186391	0
388	187508	5.419192186391	0
388	188069	5.428520204229	0
388	188073	5.433520204229	0
388	195498	15.246751664332	0
388	195499	15.251751664332	0
388	196977	15.28542586157	0
388	196978	15.29042586157	0
388	197541	15.299954625953	0
388	197676	15.304954625953	0
388	203500	24.836833001486	0
388	203501	24.841833001486	0
388	204239	24.85574875922	0
388	204240	24.86074875922	0
388	204831	24.870148080019	0
388	204969	24.875148080019	0
389	1142	1.005	0
389	1143	1.01	0
389	6549	1.015948003907	0
389	10065	1.020948003907	0
389	11075	1.025948003907	0
389	15751	1.050680026441	0
389	16602	1.055680026441	0
389	18318	1.070256028646	0
389	19192	1.075256028646	0
389	26060	1.13162402545	0
389	27270	1.13662402545	0
389	28727	1.156088813825	0
389	29705	1.161088813825	0
389	31500	1.181719066611	0
389	31969	1.186719066611	0
389	35329	1.217324379011	0
389	35491	1.222324379011	0
389	36634	1.236538864292	0
389	36980	1.241538864292	0
389	38206	1.254144023905	0
389	38219	1.259144023905	0
389	42380	1.292032012789	1
389	43134	1.297032012789	0
389	44758	1.311712608098	0
389	44948	1.316712608098	0
389	45848	1.328280699264	0
389	46321	1.333280699264	0
389	46386	1.338280699264	0
389	47286	1.345337659907	0
389	47853	1.350337659907	0
389	48520	1.362018613823	0
389	49073	1.367018613823	0
389	49402	1.372018613823	0
389	49829	1.378453525265	0
389	50655	1.383453525265	0
389	50720	1.388453525265	0
389	51930	1.402949340823	0
389	51970	1.407949340823	0
389	52983	1.420358651939	0
389	53049	1.425358651939	0
389	54123	1.436673260611	0
389	54334	1.441673260611	0
389	55170	1.453012768557	0
389	55599	1.458012768557	0
389	55644	1.463012768557	0
389	56697	1.470563168011	0
389	56731	1.475563168011	0
389	57658	1.4897061095	0
389	57710	1.4947061095	0
389	58717	1.506779714666	0
389	59096	1.511779714666	0
389	59289	1.516779714666	0
389	60014	1.527149231061	0
389	60282	1.532149231061	0
389	60337	1.537149231061	0
389	61200	1.543934034701	0
389	61357	1.548934034701	0
389	62189	1.562734284499	0
389	62223	1.567734284499	0
389	63058	1.580736010199	0
389	63123	1.585736010199	0
389	63884	1.594364036321	0
389	64045	1.599364036321	0
389	65048	1.615054685326	0
389	65274	1.620054685326	0
389	65291	1.625054685326	0
389	66054	1.632542722941	0
389	66092	1.637542722941	0
389	66719	1.649144012051	0
389	67079	1.654144012051	0
389	67256	1.659144012051	0
389	68291	1.674424011017	0
389	68296	1.679424011017	0
389	69293	1.694135039743	0
389	69325	1.699135039743	0
389	70174	1.710892664818	0
389	70196	1.715892664818	0
389	70998	1.728806972707	0
389	71005	1.733806972707	0
389	71734	1.74668726429	0
389	71743	1.75168726429	0
389	72609	1.76691823142	0
389	72613	1.77191823142	0
389	73279	1.783437872828	0
389	73551	1.788437872828	0
389	74125	1.806800653247	0
389	74263	1.811800653247	0
389	75000	1.830415346683	0
389	75001	1.835415346683	0
389	75837	1.860784403621	0
389	75838	1.865784403621	0
389	76718	1.899601761569	0
389	76719	1.904601761569	0
389	77486	3.815968024681	0
389	77487	3.820968024681	0
389	78661	3.834996634347	1
389	79040	3.839996634347	0
389	80793	3.853060400243	0
389	81010	3.858060400243	0
389	82359	3.869777578132	0
389	82439	3.874777578132	0
389	83718	3.886285854767	0
389	83847	3.891285854767	0
389	85181	3.913206118368	0
389	85800	3.918206118368	0
389	85993	3.923206118368	0
389	86961	3.935533766634	0
389	87043	3.940533766634	0
389	87581	3.948441239776	0
389	88269	3.953441239776	0
389	88573	3.958441239776	0
389	88647	3.963441239776	0
389	89541	3.970331966593	0
389	89658	3.975331966593	0
389	90705	3.984536554923	0
389	90761	3.989536554923	0
389	92302	4.001928886756	0
389	92355	4.006928886756	0
389	93904	4.019472261477	0
389	93934	4.024472261477	0
389	95405	4.03624647886	0
389	95434	4.04124647886	0
389	96355	4.053502646957	0
389	96398	4.058502646957	0
389	97605	4.071105744045	0
389	97649	4.076105744045	0
389	98740	4.085790851441	0
389	98900	4.090790851441	0
389	99931	4.105279221953	0
389	99973	4.110279221953	0
389	100692	4.122743796672	0
389	100839	4.127743796672	0
389	101883	4.144647680991	0
389	102340	4.149647680991	0
389	102366	4.154647680991	0
389	103035	4.160750851439	0
389	103819	4.165750851439	0
389	104302	4.170750851439	0
389	105415	4.187279251251	0
389	106405	4.192279251251	0
389	106586	4.197279251251	0
389	108100	4.204330899568	0
389	109311	4.209330899568	0
389	109578	4.214330899568	0
389	110261	4.223986920733	0
389	111257	4.228986920733	0
389	111914	4.233986920733	0
389	112706	4.238986920733	0
389	113624	4.243986920733	0
389	115669	4.260198924698	0
389	116494	4.265198924698	0
389	118968	4.293947843172	0
389	119624	4.298947843172	0
389	120778	4.310075035579	0
389	121727	4.315075035579	0
389	122354	4.320075035579	0
389	123868	4.327522883418	0
389	125088	4.332522883418	0
389	126945	4.352882933694	0
389	127542	4.357882933694	0
389	128940	4.371485469023	0
389	129285	4.376485469023	0
389	130167	4.39111604938	0
389	130246	4.39611604938	0
389	130796	4.401785745193	0
389	131605	4.406785745193	0
389	132080	4.411785745193	0
389	134148	4.427758725032	0
389	134181	4.432758725032	0
389	135109	4.44686091328	0
389	135166	4.45186091328	0
389	137770	4.483126937745	0
389	138202	4.488126937745	0
389	140061	4.519202899113	0
389	140238	4.524202899113	0
389	141693	4.542742959111	0
389	141998	4.547742959111	0
389	142847	4.560117549701	0
389	143007	4.565117549701	0
389	144222	4.577092871577	1
389	144490	4.582092871577	0
389	145510	4.594714934224	0
389	145747	4.599714934224	0
389	146640	4.612213293434	0
389	146661	4.617213293434	0
389	147260	4.626099038271	0
389	147585	4.631099038271	0
389	148702	4.645564842866	0
389	148921	4.650564842866	0
389	150134	4.664978880844	0
389	150195	4.669978880844	0
389	151069	4.679367832613	0
389	151132	4.684367832613	0
389	152255	4.695880610106	0
389	152422	4.700880610106	0
389	153596	4.712910907858	0
389	153663	4.717910907858	0
389	155011	4.72960210673	0
389	155045	4.73460210673	0
389	156127	4.74619532328	0
389	156290	4.75119532328	0
389	157338	4.764756692301	0
389	157375	4.769756692301	0
389	158191	4.782019724993	0
389	158360	4.787019724993	0
389	158874	4.798944566154	0
389	159400	4.803944566154	0
389	159453	4.808944566154	0
389	160386	4.820801503157	1
389	160415	4.825801503157	0
389	161352	4.833728050775	2
389	161827	4.838728050775	0
389	162886	4.854055165545	0
389	163058	4.859055165545	0
389	163918	4.871829981526	0
389	164209	4.876829981526	0
389	165127	4.888321205421	0
389	165411	4.893321205421	0
389	166360	4.906607793227	0
389	166383	4.911607793227	0
389	167288	4.926199643119	0
389	167428	4.931199643119	0
389	167765	4.946325854722	0
389	168381	4.951325854722	0
389	168522	4.956325854722	0
389	169058	4.968160227836	0
389	169557	4.973160227836	0
389	169575	4.978160227836	0
389	169930	4.986086685777	0
389	170449	4.991086685777	0
389	170588	4.996086685777	0
389	171632	5.007881805663	0