version 2
run General-0-20120906-02:29:46-3092
attr configname General
attr datetime 20120906-02:29:46
attr experiment General
attr inifile omnetpp.ini
attr iterationvars ""
attr iterationvars2 $repetition=0
attr measurement ""
attr network csma802154net
attr processid 3092
attr repetition 0
attr replication #0
attr resultdir results
attr runnumber 0
attr seedset 0

vector 386  csma802154net.dataCentricNetworkMan  RREQPacketFrequency  ETV
vector 387  csma802154net.dataCentricNetworkMan  DiscoveryPacketFrequency  ETV
vector 388  csma802154net.dataCentricNetworkMan  RegisterPacketFrequency  ETV
vector 389  csma802154net.dataCentricNetworkMan  RReplyPacketFrequency  ETV
vector 390  csma802154net.dataCentricNetworkMan  AODVDataPacketFrequency  ETV
vector 427  csma802154net.fixhost[36].udpApp  "End-to-end delay"  ETV
vector 383  csma802154net.dataCentricNetworkMan  dataPacketE2EDelay  ETV
383	232840	7.300180131552	0.200180131552
383	234840	7.39199616966	0.29199616966
383	242854	11.349260101671	0.249260101671
383	245554	11.478108131552	0.378108131552
383	254825	14.238052131552	0.138052131552
383	257146	14.33299616966	0.23299616966
383	266690	17.366148131551	0.266148131551
383	268686	17.458212169658	0.358212169658
383	276185	20.34830010167	0.24830010167
383	278823	20.426660131551	0.326660131551
383	290037	23.392068113044	0.292068113044
383	290703	23.41311613161	0.31311613161
383	300693	26.296732101668	0.196732101668
383	304007	26.39537213155	0.29537213155
383	310093	29.215084101669	0.115084101669
383	312735	29.298740131553	0.198740131553
383	318816	32.268844101666	0.168844101666
383	321458	32.341124131547	0.241124131547
383	328483	35.256612131549	0.156612131549
383	330482	35.355004169657	0.255004169657
383	338115	38.306260131553	0.206260131553
383	340111	38.399924169661	0.299924169661
383	346315	41.217004101669	0.117004101669
383	348955	41.276164131552	0.176164131552
383	355981	44.240292131552	0.140292131552
383	357977	44.33491616966	0.23491616966
383	365003	47.238372131552	0.138372131552
383	366999	47.330116169661	0.230116169661
383	375237	50.365508131552	0.265508131552
383	377236	50.46454016966	0.36454016966
386	1142	1.005	0
386	1143	1.01	0
386	5660	1.015948003907	0
386	8707	1.020948003907	0
386	9499	1.025948003907	0
386	11014	1.033472025	0
386	12569	1.038472025	1
386	12794	1.043472025	0
386	14587	1.050360027895	0
386	16511	1.055360027895	0
386	16736	1.060360027895	0
386	19644	1.07620003878	0
386	20107	1.08120003878	0
386	23503	1.105	0
386	24435	1.11	0
386	31580	1.171084043397	6
386	32559	1.176084043397	0
386	33598	1.192161284185	21
386	34761	1.197161284185	0
386	36666	1.215631459172	5
386	36706	1.220631459172	0
386	37650	1.232907008517	68
386	39397	1.237907008517	0
386	40691	1.257994376558	2
386	40925	1.262994376558	0
386	42059	1.274626849264	17
386	42083	1.279626849264	0
386	43670	1.286524029439	34
386	44820	1.291524029439	0
386	45173	1.296524029439	0
386	46321	1.305648037958	0
386	47342	1.310648037958	17
386	47834	1.315648037958	0
386	48652	1.322924053638	0
386	50128	1.327924053638	10
386	50400	1.332924053638	0
386	51930	1.347063997121	30
386	52645	1.352063997121	0
386	53038	1.357063997121	0
386	54939	1.365012076682	25
386	55891	1.370012076682	0
386	57439	1.381704022014	7
386	57987	1.386704022014	0
386	58310	1.391704022014	0
386	59612	1.39882177768	10
386	60290	1.40382177768	0
386	60349	1.40882177768	0
386	61592	1.415924074279	29
386	62401	1.420924074279	1
386	62775	1.425924074279	0
386	64121	1.433874045227	45
386	64372	1.438874045227	0
386	65677	1.449504021363	61
386	66465	1.454504021363	0
386	67508	1.468890322079	9
386	68323	1.473890322079	69
386	69073	1.478890322079	0
386	69820	1.483890322079	21
386	70680	1.488890322079	0
386	71221	1.493890322079	0
386	72713	1.51071915167	81
386	73740	1.51571915167	0
386	76725	1.544422796765	10
386	76930	1.549422796765	6
386	77930	1.554422796765	22
386	78245	1.559422796765	22
386	78787	1.564422796765	0
386	79911	1.573252080568	13
386	80027	1.578252080568	0
386	81674	1.590344056204	40
386	82052	1.595344056204	0
386	82955	1.60063779601	17
386	83257	1.60563779601	0
386	84476	1.616976057512	49
386	84653	1.621976057512	0
386	84914	1.627082165009	13
386	86036	1.632082165009	18
386	86092	1.637082165009	0
386	87614	1.651132092284	9
386	88025	1.656132092284	0
386	88984	1.669501410763	35
386	89638	1.674501410763	44
386	90019	1.679501410763	0
386	91105	1.689298725381	41
386	92277	1.694298725381	21
386	92596	1.699298725381	0
386	93853	1.713512060879	9
386	94435	1.718512060879	0
386	95441	1.729888053685	41
386	95487	1.734888053685	0
386	96960	1.746104008825	91
386	97014	1.751104008825	0
386	98414	1.763733134042	21
386	98751	1.768733134042	0
386	99502	1.781716072857	39
386	99698	1.786716072857	0
386	101070	1.799009262684	96
386	101381	1.804009262684	0
386	102566	1.81528805473	59
386	102759	1.82028805473	0
386	103819	1.831805069175	39
386	103870	1.836805069175	0
386	105027	1.848708086388	71
386	105384	1.853708086388	0
386	106320	1.865498439663	44
386	106637	1.870498439663	0
386	107448	1.881769961769	50
386	108022	1.886769961769	15
386	108096	1.891769961769	0
386	108729	1.898310792835	29
386	109470	1.903310792835	1
386	109777	1.908310792835	0
386	110093	1.915003929215	23
386	110765	1.920003929215	46
386	111148	1.925003929215	0
386	112536	1.937593605197	38
386	112673	1.942593605197	0
386	113876	1.951464054937	45
386	113919	1.956464054937	0
386	114889	1.968772031089	48
386	115214	1.973772031089	0
386	116261	1.985184020129	71
386	116807	1.990184020129	0
386	117945	2.001450847267	37
386	118729	2.006450847267	1
386	118770	2.011450847267	0
386	119703	2.02167741744	52
386	119885	2.02667741744	0
386	120853	2.038374869834	37
386	121141	2.043374869834	21
386	121187	2.048374869834	0
386	122182	2.055439625249	48
386	122229	2.060439625249	0
386	123201	2.070835972727	74
386	123254	2.075835972727	0
386	124755	2.088004073302	95
386	124789	2.093004073302	0
386	126066	2.105643720903	16
386	126228	2.110643720903	0
386	127216	2.124827557194	38
386	127378	2.129827557194	0
386	128562	2.142924035431	88
386	128593	2.147924035431	0
386	129524	2.161768016091	18
386	129545	2.166768016091	0
386	130438	2.178656052882	85
386	130450	2.183656052882	0
386	130941	2.194479913215	11
386	130949	2.199479913215	0
386	131631	2.206960013902	47
386	131795	2.211960013902	4
386	131801	2.216960013902	0
386	132588	2.223150388817	42
386	132600	2.228150388817	0
386	133462	2.242340043175	79
386	133471	2.247340043175	0
386	134368	2.260928057274	98
386	134369	2.265928057274	0
386	135154	2.280592057567	69
386	135159	2.285592057567	0
386	135775	2.298144054936	94
386	135908	2.303144054936	0
386	136688	2.318826338227	102
386	136697	2.323826338227	0
386	137366	2.337219815895	79
386	137509	2.342219815895	0
386	138602	2.356080008823	47
386	138603	2.361080008823	0
386	139026	2.376076089825	14
386	139027	2.381076089825	0
386	139746	2.41439203622	58
386	140025	2.41939203622	29
386	140026	2.42439203622	0
386	140530	3.842132039432	1
386	140537	3.847132039432	0
386	141541	3.870742702196	74
386	141782	3.875742702196	0
386	143459	3.889108613878	113
386	143867	3.894108613878	0
386	145401	3.906426178132	22
386	145490	3.911426178132	0
386	147087	3.923081547291	77
386	147280	3.928081547291	0
386	149159	3.940153688515	26
386	149245	3.945153688515	0
386	150732	3.956639745521	31
386	150789	3.961639745521	0
386	152057	3.97389974793	84
386	152327	3.97889974793	0
386	153675	3.992287576893	37
386	154011	3.997287576893	0
386	155145	4.008669093016	11
386	155642	4.013669093016	2
386	155684	4.018669093016	0
386	156520	4.025843235775	38
386	156922	4.030843235775	14
386	157224	4.035843235775	0
386	157889	4.042346184722	35
386	158068	4.047346184722	0
386	158591	4.052519871371	12
386	158631	4.057519871371	0
386	159376	4.064340124011	57
386	159669	4.069340124011	18
386	159722	4.074340124011	0
386	160768	4.083030576377	61
386	160794	4.088030576377	0
386	161978	4.099047179387	50
386	162006	4.104047179387	0
386	163140	4.11713338055	39
386	163194	4.12213338055	0
386	164128	4.134671596948	29
386	164620	4.139671596948	13
386	164655	4.144671596948	0
386	165560	4.152183491388	64
386	165713	4.157183491388	0
386	166119	4.168792021524	13
386	166549	4.173792021524	51
386	166974	4.178792021524	4
386	167000	4.183792021524	0
386	167962	4.194646187932	71
386	167989	4.199646187932	0
386	168998	4.210952578551	55
386	169033	4.215952578551	0
386	169949	4.225292089292	64
386	170222	4.230292089292	0
386	171521	4.244726382945	60
386	171644	4.249726382945	0
386	172707	4.263386245971	11
386	172745	4.268386245971	0
386	173722	4.280715239263	94
386	173804	4.285715239263	0
386	174916	4.299900709724	121
386	175228	4.304900709724	0
386	176521	4.316233551961	86
386	176609	4.321233551961	0
386	177830	4.33256698367	50
386	177906	4.33756698367	0
386	178984	4.349481439693	19
386	179022	4.354481439693	0
386	180592	4.366186104449	86
386	180717	4.371186104449	0
386	182422	4.384590178072	26
386	182516	4.389590178072	0
386	183798	4.40185883073	58
386	184020	4.40685883073	0
386	184942	4.418786506074	67
386	185312	4.423786506074	10
386	185516	4.428786506074	0
386	186012	4.433786506074	28
386	186263	4.438786506074	13
386	186881	4.443786506074	34
386	187221	4.448786506074	20
386	187449	4.453786506074	0
386	188396	4.462995310559	35
386	188463	4.467995310559	0
386	188689	4.473390292981	8
386	190015	4.478390292981	38
386	190085	4.483390292981	0
386	191740	4.497127235916	45
386	191776	4.502127235916	0
386	193309	4.513554458523	32
386	193349	4.518554458523	0
386	194516	4.530321542431	12
386	194870	4.535321542431	0
386	196093	4.548952783785	24
386	196268	4.553952783785	0
386	196758	4.565229593642	2
386	197151	4.570229593642	18
386	197169	4.575229593642	0
386	197894	4.583965002518	19
386	198280	4.588965002518	42
386	198430	4.593965002518	0
386	199079	4.600500125975	38
386	199387	4.605500125975	28
386	199408	4.610500125975	0
386	200075	4.61972803152	42
386	200226	4.62472803152	0
386	200581	4.633262134918	2
386	200733	4.638262134918	0
386	201197	4.644718912572	36
386	201209	4.649718912572	0
386	201933	4.657716439163	81
386	202351	4.662716439163	0
386	203496	4.679635826947	48
386	203524	4.684635826947	0
386	204352	4.697476829398	47
386	204487	4.702476829398	0
386	205180	4.716220370695	49
386	205331	4.721220370695	0
386	205969	4.735917835114	68
386	206384	4.740917835114	28
386	206395	4.745917835114	0
386	206701	4.7537183033	27
386	207104	4.7587183033	52
386	207240	4.7637183033	0
386	207746	4.779330301499	73
386	207747	4.784330301499	0
386	208436	4.809952808868	0
386	208440	4.814952808868	0
386	209659	4.838389095808	5
386	210149	4.843389095808	0
386	210154	4.848389095808	0
386	210668	4.862483190434	47
386	211132	4.867483190434	0
386	211429	4.872483190434	0
386	212443	4.884136852062	49
386	212581	4.889136852062	0
386	213286	4.900384865374	0
386	213424	4.905384865374	0
386	213963	4.916312880665	0
386	213967	4.921312880665	0
386	214598	4.937690889826	0
386	214602	4.942690889826	0
386	215258	4.972976839855	0
386	215399	4.977976839855	0
386	216859	5.007400858909	0
386	216997	5.012400858909	0
386	217938	5.02980887385	0
386	218264	5.03480887385	0
386	219060	5.04605688879	0
386	219198	5.05105688879	0
386	219734	5.061344907844	0
386	219738	5.066344907844	0
386	220389	5.083032913531	0
386	220527	5.088032913531	0
386	221065	5.097690922814	0
386	221337	5.102690922814	0
386	222170	5.112624914279	0
386	222617	5.117624914279	0
386	223332	5.127592927591	0
386	223664	5.132592927591	0
386	224341	5.147240965699	0
386	224345	5.152240965699	0
386	226388	7.10501	0
386	226574	7.11001	0
386	226891	7.11501	0
386	227567	7.130596024453	0
386	227705	7.135596024453	0
386	228263	7.146524037765	0
386	228404	7.151524037765	0
386	228928	7.161822052706	0
386	229066	7.166822052706	0
386	229575	7.176780067646	0
386	229847	7.181780067646	0
386	230845	7.256436097528	0
386	230852	7.261436097528	0
386	231536	7.274924116582	0
386	231674	7.279924116582	0
386	232341	7.290532122269	0
386	232479	7.295532122269	0
386	233856	7.36642015469	0
386	233994	7.37142015469	0
386	234511	7.382348160377	0
386	234649	7.387348160377	0
386	236736	11.10501	0
386	236737	11.11001	0
386	237228	11.115308009161	0
386	237364	11.120308009161	0
386	237903	11.129636024453	0
386	238041	11.134636024453	0
386	238599	11.145884037765	0
386	238737	11.150884037765	0
386	239259	11.162142052706	0
386	239397	11.167142052706	0
386	239906	11.177740067647	0
386	240178	11.182740067647	0
386	241861	11.323044086701	0
386	241999	11.328044086701	0
386	242520	11.338972092388	0
386	242659	11.343972092388	0
386	243849	11.436604097528	0
386	243987	11.441604097528	0
386	244538	11.451572116582	0
386	244676	11.456572116582	0
386	245193	11.466860122269	0
386	245363	11.471860122269	0
386	248774	14.10501	0
386	248775	14.11001	0
386	249266	14.116268009161	0
386	249404	14.121268009161	0
386	249943	14.131876024453	0
386	250081	14.136876024453	0
386	250641	14.147164037765	0
386	250842	14.152164037765	0
386	251364	14.163422052706	0
386	251372	14.168422052706	0
386	252066	14.183820067647	0
386	252212	14.188820067647	0
386	252777	14.198468097529	0
386	252915	14.203468097529	0
386	253505	14.213116116583	0
386	253643	14.218116116583	0
386	254326	14.22808412227	0
386	254464	14.23308412227	0
386	256030	14.30774015469	0
386	256224	14.31274015469	0
386	256771	14.323348160377	0
386	256955	14.328348160377	0
386	259686	17.10501	0
386	259861	17.11001	0
386	260178	17.11501	0
386	260854	17.129636024453	0
386	260992	17.134636024453	0
386	261550	17.145884037765	0
386	261688	17.150884037765	0
386	262210	17.161502052706	0
386	262348	17.166502052706	0
386	262857	17.176780067647	0
386	263128	17.181780067647	0
386	264724	17.319524097527	0
386	264728	17.324524097527	0
386	265398	17.339932116581	0
386	265536	17.344932116581	0
386	266191	17.354900122268	0
386	266329	17.359900122268	0
386	267702	17.431676154689	0
386	267840	17.436676154689	0
386	268357	17.447924160375	0
386	268495	17.452924160375	0
386	270128	20.10501	0
386	270304	20.11001	0
386	270620	20.11501	0
386	271296	20.130276024453	0
386	271434	20.135276024453	0
386	271992	20.146204037765	0
386	272130	20.151204037765	0
386	272652	20.162142052705	0
386	272790	20.167142052705	0
386	273299	20.176780067646	0
386	273570	20.181780067646	0
386	275197	20.3217640867	0
386	275335	20.3267640867	0
386	275856	20.337052092387	0
386	275994	20.342052092387	0
386	277169	20.387716097527	0
386	277305	20.392716097527	0
386	277841	20.402044116581	0
386	277977	20.407044116581	0
386	278494	20.416372122268	0
386	278632	20.421372122268	0
386	280401	22.003929717561	0
386	280402	22.008929717561	0
386	282346	23.10501	0
386	282522	23.11001	0
386	282838	23.11501	0
386	283514	23.130916024453	0
386	283652	23.135916024453	0
386	284210	23.147164037764	0
386	284348	23.152164037764	0
386	284870	23.162782052705	0
386	284874	23.167782052705	0
386	285517	23.198860067646	0
386	285788	23.203860067646	0
386	286809	23.2788360867	0
386	287080	23.2838360867	0
386	287546	23.294300097527	0
386	287887	23.299300097527	0
386	288100	23.309412124808	0
386	288101	23.314412124808	0
386	288754	23.359132092387	0
386	289033	23.364132092387	0
386	289708	23.373460103761	0
386	289712	23.378460103761	0
386	294984	26.10501	0
386	294985	26.11001	0
386	295476	26.115628009161	0
386	295614	26.120628009161	0
386	296153	26.131876024453	0
386	296291	26.136876024453	0
386	296849	26.147164037764	0
386	296987	26.152164037764	0
386	297509	26.162462052705	0
386	297513	26.167462052705	0
386	298156	26.192460067646	0
386	298428	26.197460067646	0
386	299578	26.272436086699	0
386	299848	26.277436086699	0
386	300364	26.286764092385	0
386	300502	26.291764092385	0
386	302349	26.354188097527	0
386	302487	26.359188097527	0
386	303023	26.36883611658	0
386	303161	26.37383611658	0
386	303678	26.384764122267	0
386	303816	26.389764122267	0
386	305242	29.10501	0
386	305418	29.11001	0
386	305734	29.11501	0
386	306410	29.129956024453	0
386	306548	29.134956024453	0
386	307106	29.145244037765	0
386	307244	29.150244037765	0
386	307766	29.159902052706	0
386	307904	29.164902052706	0
386	308413	29.175180067647	0
386	308558	29.180180067647	0
386	309099	29.1901480867	0
386	309243	29.1951480867	0
386	309760	29.204476092386	0
386	309898	29.209476092386	0
386	311077	29.257876097529	0
386	311215	29.262876097529	0
386	311751	29.274124116583	0
386	311889	29.279124116583	0
386	312406	29.28877212227	0
386	312544	29.29377212227	0
386	313972	32.10501	0
386	313973	32.11001	0
386	314464	32.11626800916	0
386	314602	32.12126800916	0
386	315141	32.132196024451	0
386	315279	32.137196024451	0
386	315837	32.148124037763	0
386	315975	32.153124037763	0
386	316497	32.163742052703	0
386	316501	32.168742052703	0
386	317144	32.228300067644	0
386	317289	32.233300067644	0
386	317830	32.243588086697	0
386	317968	32.248588086697	0
386	318489	32.259516092383	0
386	318625	32.264516092383	0
386	319800	32.298660097524	0
386	319938	32.303660097524	0
386	320474	32.313628116578	0
386	320612	32.318628116578	0
386	321129	32.329876122265	0
386	321267	32.334876122265	0
386	322693	35.10501	0
386	322694	35.11001	0
386	323185	35.11594800916	0
386	323323	35.12094800916	0
386	323862	35.132196024451	0
386	323998	35.137196024451	0
386	324556	35.146524037762	0
386	324694	35.151524037762	0
386	325216	35.161502052703	0
386	325220	35.166502052703	0
386	325863	35.195020067644	0
386	326005	35.200020067644	0
386	326518	35.209348097526	0
386	326522	35.214348097526	0
386	327192	35.231356116579	0
386	327333	35.236356116579	0
386	327855	35.246644122266	0
386	328126	35.251644122266	0
386	329498	35.329428154687	0
386	329636	35.334428154687	0
386	330153	35.344076160374	0
386	330291	35.349076160374	0
386	331717	38.10501	0
386	331892	38.11001	0
386	332209	38.11501	0
386	332885	38.129956024453	0
386	333023	38.134956024453	0
386	333581	38.145884037765	0
386	333719	38.150884037765	0
386	334241	38.161182052706	0
386	334379	38.166182052706	0
386	334888	38.177100067647	0
386	335159	38.182100067647	0
386	336149	38.257396097529	0
386	336153	38.262396097529	0
386	336823	38.280044116583	0
386	336961	38.285044116583	0
386	337616	38.29597212227	0
386	337754	38.30097212227	0
386	339127	38.373708154691	0
386	339265	38.378708154691	0
386	339782	38.388996160378	0
386	339920	38.393996160378	0
386	341471	41.10501	0
386	341472	41.11001	0
386	341963	41.11594800916	0
386	342101	41.12094800916	0
386	342640	41.132196024452	0
386	342778	41.137196024452	0
386	343336	41.146844037764	0
386	343474	41.151844037764	0
386	343996	41.161822052705	0
386	344132	41.166822052705	0
386	344641	41.176140067646	0
386	344783	41.181140067646	0
386	345327	41.191748086699	0
386	345469	41.196748086699	0
386	345986	41.206716092386	0
386	346124	41.211716092386	0
386	347299	41.235620097528	0
386	347437	41.240620097528	0
386	347973	41.251228116582	0
386	348109	41.256228116582	0
386	348626	41.265556122269	0
386	348764	41.270556122269	0
386	350191	44.10501	0
386	350366	44.11001	0
386	350683	44.11501	0
386	351359	44.130596024452	0
386	351497	44.135596024452	0
386	352055	44.145884037764	0
386	352193	44.150884037764	0
386	352715	44.160542052705	0
386	352719	44.165542052705	0
386	353362	44.184780067646	0
386	353504	44.189780067646	0
386	354017	44.199428097528	0
386	354153	44.204428097528	0
386	354689	44.213756116582	0
386	354827	44.218756116582	0
386	355482	44.229684122269	0
386	355620	44.234684122269	0
386	356993	44.30806015469	0
386	357131	44.31306015469	0
386	357648	44.324308160377	0
386	357786	44.329308160377	0
386	359212	47.10501	0
386	359213	47.11001	0
386	359704	47.116268009161	0
386	359842	47.121268009161	0
386	360381	47.130916024453	0
386	360519	47.135916024453	0
386	361077	47.146204037765	0
386	361215	47.151204037765	0
386	361737	47.160862052706	0
386	361875	47.165862052706	0
386	362384	47.177100067647	0
386	362526	47.182100067647	0
386	363039	47.192068097529	0
386	363043	47.197068097529	0
386	363713	47.214076116583	0
386	363852	47.219076116583	0
386	364504	47.22840412227	0
386	364809	47.23340412227	0
386	366015	47.304860154691	0
386	366153	47.309860154691	0
386	366670	47.320148160378	0
386	366808	47.325148160378	0
386	368234	50.10501	0
386	368409	50.11001	0
386	368726	50.11501	0
386	369402	50.129636024453	0
386	369540	50.134636024453	0
386	370098	50.144604037765	0
386	370236	50.149604037765	0
386	370758	50.160542052706	0
386	370896	50.165542052706	0
386	371405	50.175180067647	0
386	371676	50.180180067647	0
386	373272	50.319524097529	0
386	373276	50.324524097529	0
386	373946	50.339612116583	0
386	374087	50.344612116583	0
386	374609	50.35458012227	0
386	374880	50.35958012227	0
386	376252	50.437364154691	0
386	376390	50.442364154691	0
386	376907	50.453612160378	0
386	377045	50.458612160378	0
387	1142	1.005	1
387	1143	1.01	0
387	5660	1.015948003907	78
387	8707	1.020948003907	1
387	9499	1.025948003907	0
387	11014	1.033472025	1
387	12569	1.038472025	34
387	12794	1.043472025	0
387	14587	1.050360027895	3
387	16511	1.055360027895	4
387	16736	1.060360027895	0
387	19644	1.07620003878	4
387	20107	1.08120003878	0
387	23503	1.105	1
387	24435	1.11	0
387	31580	1.171084043397	0
387	32559	1.176084043397	0
387	33598	1.192161284185	0
387	34761	1.197161284185	0
387	36666	1.215631459172	0
387	36706	1.220631459172	0
387	37650	1.232907008517	0
387	39397	1.237907008517	0
387	40691	1.257994376558	0
387	40925	1.262994376558	0
387	42059	1.274626849264	0
387	42083	1.279626849264	0
387	43670	1.286524029439	9
387	44820	1.291524029439	2
387	45173	1.296524029439	0
387	46321	1.305648037958	9
387	47342	1.310648037958	0
387	47834	1.315648037958	0
387	48652	1.322924053638	16
387	50128	1.327924053638	13
387	50400	1.332924053638	0
387	51930	1.347063997121	0
387	52645	1.352063997121	22
387	53038	1.357063997121	0
387	54939	1.365012076682	2
387	55891	1.370012076682	0
387	57439	1.381704022014	0
387	57987	1.386704022014	14
387	58310	1.391704022014	0
387	59612	1.39882177768	0
387	60290	1.40382177768	2
387	60349	1.40882177768	0
387	61592	1.415924074279	4
387	62401	1.420924074279	24
387	62775	1.425924074279	0
387	64121	1.433874045227	0
387	64372	1.438874045227	0
387	65677	1.449504021363	0
387	66465	1.454504021363	0
387	67508	1.468890322079	1
387	68323	1.473890322079	0
387	69073	1.478890322079	0
387	69820	1.483890322079	2
387	70680	1.488890322079	1
387	71221	1.493890322079	0
387	72713	1.51071915167	0
387	73740	1.51571915167	0
387	76725	1.544422796765	0
387	76930	1.549422796765	0
387	77930	1.554422796765	0
387	78245	1.559422796765	0
387	78787	1.564422796765	0
387	79911	1.573252080568	4
387	80027	1.578252080568	0
387	81674	1.590344056204	0
387	82052	1.595344056204	0
387	82955	1.60063779601	0
387	83257	1.60563779601	0
387	84476	1.616976057512	0
387	84653	1.621976057512	0
387	84914	1.627082165009	0
387	86036	1.632082165009	0
387	86092	1.637082165009	0
387	87614	1.651132092284	0
387	88025	1.656132092284	0
387	88984	1.669501410763	0
387	89638	1.674501410763	0
387	90019	1.679501410763	0
387	91105	1.689298725381	0
387	92277	1.694298725381	0
387	92596	1.699298725381	0
387	93853	1.713512060879	0
387	94435	1.718512060879	0
387	95441	1.729888053685	0
387	95487	1.734888053685	0
387	96960	1.746104008825	0
387	97014	1.751104008825	0
387	98414	1.763733134042	0
387	98751	1.768733134042	0
387	99502	1.781716072857	0
387	99698	1.786716072857	0
387	101070	1.799009262684	0
387	101381	1.804009262684	0
387	102566	1.81528805473	0
387	102759	1.82028805473	0
387	103819	1.831805069175	0
387	103870	1.836805069175	0
387	105027	1.848708086388	0
387	105384	1.853708086388	0
387	106320	1.865498439663	0
387	106637	1.870498439663	0
387	107448	1.881769961769	0
387	108022	1.886769961769	0
387	108096	1.891769961769	0
387	108729	1.898310792835	0
387	109470	1.903310792835	0
387	109777	1.908310792835	0
387	110093	1.915003929215	0
387	110765	1.920003929215	0
387	111148	1.925003929215	0
387	112536	1.937593605197	0
387	112673	1.942593605197	0
387	113876	1.951464054937	0
387	113919	1.956464054937	0
387	114889	1.968772031089	0
387	115214	1.973772031089	0
387	116261	1.985184020129	0
387	116807	1.990184020129	0
387	117945	2.001450847267	0
387	118729	2.006450847267	0
387	118770	2.011450847267	0
387	119703	2.02167741744	0
387	119885	2.02667741744	0
387	120853	2.038374869834	0
387	121141	2.043374869834	0
387	121187	2.048374869834	0
387	122182	2.055439625249	0
387	122229	2.060439625249	0
387	123201	2.070835972727	0
387	123254	2.075835972727	0
387	124755	2.088004073302	0
387	124789	2.093004073302	0
387	126066	2.105643720903	0
387	126228	2.110643720903	0
387	127216	2.124827557194	0
387	127378	2.129827557194	0
387	128562	2.142924035431	0
387	128593	2.147924035431	0
387	129524	2.161768016091	0
387	129545	2.166768016091	0
387	130438	2.178656052882	0
387	130450	2.183656052882	0
387	130941	2.194479913215	0
387	130949	2.199479913215	0
387	131631	2.206960013902	0
387	131795	2.211960013902	0
387	131801	2.216960013902	0
387	132588	2.223150388817	0
387	132600	2.228150388817	0
387	133462	2.242340043175	0
387	133471	2.247340043175	0
387	134368	2.260928057274	0
387	134369	2.265928057274	0
387	135154	2.280592057567	0
387	135159	2.285592057567	0
387	135775	2.298144054936	0
387	135908	2.303144054936	0
387	136688	2.318826338227	0
387	136697	2.323826338227	0
387	137366	2.337219815895	0
387	137509	2.342219815895	0
387	138602	2.356080008823	0
387	138603	2.361080008823	0
387	139026	2.376076089825	0
387	139027	2.381076089825	0
387	139746	2.41439203622	0
387	140025	2.41939203622	0
387	140026	2.42439203622	0
387	140530	3.842132039432	0
387	140537	3.847132039432	0
387	141541	3.870742702196	0
387	141782	3.875742702196	0
387	143459	3.889108613878	0
387	143867	3.894108613878	0
387	145401	3.906426178132	0
387	145490	3.911426178132	0
387	147087	3.923081547291	0
387	147280	3.928081547291	0
387	149159	3.940153688515	0
387	149245	3.945153688515	0
387	150732	3.956639745521	0
387	150789	3.961639745521	0
387	152057	3.97389974793	0
387	152327	3.97889974793	0
387	153675	3.992287576893	0
387	154011	3.997287576893	0
387	155145	4.008669093016	0
387	155642	4.013669093016	0
387	155684	4.018669093016	0
387	156520	4.025843235775	0
387	156922	4.030843235775	0
387	157224	4.035843235775	0
387	157889	4.042346184722	0
387	158068	4.047346184722	0
387	158591	4.052519871371	0
387	158631	4.057519871371	0
387	159376	4.064340124011	0
387	159669	4.069340124011	0
387	159722	4.074340124011	0
387	160768	4.083030576377	0
387	160794	4.088030576377	0
387	161978	4.099047179387	0
387	162006	4.104047179387	0
387	163140	4.11713338055	0
387	163194	4.12213338055	0
387	164128	4.134671596948	0
387	164620	4.139671596948	0
387	164655	4.144671596948	0
387	165560	4.152183491388	0
387	165713	4.157183491388	0
387	166119	4.168792021524	0
387	166549	4.173792021524	0
387	166974	4.178792021524	0
387	167000	4.183792021524	0
387	167962	4.194646187932	0
387	167989	4.199646187932	0
387	168998	4.210952578551	0
387	169033	4.215952578551	0
387	169949	4.225292089292	0
387	170222	4.230292089292	0
387	171521	4.244726382945	0
387	171644	4.249726382945	0
387	172707	4.263386245971	0
387	172745	4.268386245971	0
387	173722	4.280715239263	0
387	173804	4.285715239263	0
387	174916	4.299900709724	0
387	175228	4.304900709724	0
387	176521	4.316233551961	0
387	176609	4.321233551961	0
387	177830	4.33256698367	0
387	177906	4.33756698367	0
387	178984	4.349481439693	0
387	179022	4.354481439693	0
387	180592	4.366186104449	0
387	180717	4.371186104449	0
387	182422	4.384590178072	0
387	182516	4.389590178072	0
387	183798	4.40185883073	0
387	184020	4.40685883073	0
387	184942	4.418786506074	0
387	185312	4.423786506074	0
387	185516	4.428786506074	0
387	186012	4.433786506074	0
387	186263	4.438786506074	0
387	186881	4.443786506074	0
387	187221	4.448786506074	0
387	187449	4.453786506074	0
387	188396	4.462995310559	0
387	188463	4.467995310559	0
387	188689	4.473390292981	0
387	190015	4.478390292981	0
387	190085	4.483390292981	0
387	191740	4.497127235916	0
387	191776	4.502127235916	0
387	193309	4.513554458523	0
387	193349	4.518554458523	0
387	194516	4.530321542431	0
387	194870	4.535321542431	0
387	196093	4.548952783785	0
387	196268	4.553952783785	0
387	196758	4.565229593642	0
387	197151	4.570229593642	0
387	197169	4.575229593642	0
387	197894	4.583965002518	0
387	198280	4.588965002518	0
387	198430	4.593965002518	0
387	199079	4.600500125975	0
387	199387	4.605500125975	0
387	199408	4.610500125975	0
387	200075	4.61972803152	0
387	200226	4.62472803152	0
387	200581	4.633262134918	0
387	200733	4.638262134918	0
387	201197	4.644718912572	0
387	201209	4.649718912572	0
387	201933	4.657716439163	0
387	202351	4.662716439163	0
387	203496	4.679635826947	0
387	203524	4.684635826947	0
387	204352	4.697476829398	0
387	204487	4.702476829398	0
387	205180	4.716220370695	0
387	205331	4.721220370695	0
387	205969	4.735917835114	0
387	206384	4.740917835114	0
387	206395	4.745917835114	0
387	206701	4.7537183033	0
387	207104	4.7587183033	0
387	207240	4.7637183033	0
387	207746	4.779330301499	0
387	207747	4.784330301499	0
387	208436	4.809952808868	0
387	208440	4.814952808868	0
387	209659	4.838389095808	0
387	210149	4.843389095808	0
387	210154	4.848389095808	0
387	210668	4.862483190434	0
387	211132	4.867483190434	0
387	211429	4.872483190434	0
387	212443	4.884136852062	0
387	212581	4.889136852062	0
387	213286	4.900384865374	0
387	213424	4.905384865374	0
387	213963	4.916312880665	0
387	213967	4.921312880665	0
387	214598	4.937690889826	0
387	214602	4.942690889826	0
387	215258	4.972976839855	0
387	215399	4.977976839855	0
387	216859	5.007400858909	0
387	216997	5.012400858909	0
387	217938	5.02980887385	0
387	218264	5.03480887385	0
387	219060	5.04605688879	0
387	219198	5.05105688879	0
387	219734	5.061344907844	0
387	219738	5.066344907844	0
387	220389	5.083032913531	0
387	220527	5.088032913531	0
387	221065	5.097690922814	0
387	221337	5.102690922814	0
387	222170	5.112624914279	0
387	222617	5.117624914279	0
387	223332	5.127592927591	0
387	223664	5.132592927591	0
387	224341	5.147240965699	0
387	224345	5.152240965699	0
387	226388	7.10501	0
387	226574	7.11001	0
387	226891	7.11501	0
387	227567	7.130596024453	0
387	227705	7.135596024453	0
387	228263	7.146524037765	0
387	228404	7.151524037765	0
387	228928	7.161822052706	0
387	229066	7.166822052706	0
387	229575	7.176780067646	0
387	229847	7.181780067646	0
387	230845	7.256436097528	0
387	230852	7.261436097528	0