file 184362 1348589251                                          
version 2
run General-0-20120925-17:05:52-3160
attr configname General
attr datetime 20120925-17:05:52
attr experiment General
attr inifile omnetpp.ini
attr iterationvars ""
attr iterationvars2 $repetition=0
attr measurement ""
attr network csma802154net
attr processid 3160
attr repetition 0
attr replication #0
attr resultdir results
attr runnumber 0
attr seedset 0

vector 386  csma802154net.dataCentricNetworkMan  RREQPacketFrequency  ETV
vector 387  csma802154net.dataCentricNetworkMan  DiscoveryPacketFrequency  ETV
vector 388  csma802154net.dataCentricNetworkMan  RegisterPacketFrequency  ETV
vector 389  csma802154net.dataCentricNetworkMan  RReplyPacketFrequency  ETV
vector 390  csma802154net.dataCentricNetworkMan  AODVDataPacketFrequency  ETV
vector 394  csma802154net.fixhost[3].udpApp  "End-to-end delay"  ETV
vector 383  csma802154net.dataCentricNetworkMan  dataPacketE2EDelay  ETV
vector 397  csma802154net.fixhost[6].udpApp  "End-to-end delay"  ETV
vector 400  csma802154net.fixhost[9].udpApp  "End-to-end delay"  ETV
vector 408  csma802154net.fixhost[17].udpApp  "End-to-end delay"  ETV
vector 410  csma802154net.fixhost[19].udpApp  "End-to-end delay"  ETV
vector 411  csma802154net.fixhost[20].udpApp  "End-to-end delay"  ETV
vector 403  csma802154net.fixhost[12].udpApp  "End-to-end delay"  ETV
383	1344 1790 625110 965442 20.540446373234 27.329285706707 42 0.540446373234 5.230109720378 116.34629032535 388.52972986303
386	3134 36311 1135 1056274 2.005 38.245780585965 1213 0 174 24676 1584576
387	39445 35781 1135 1056274 2.005 38.245780585965 1213 0 0 0 0
388	75226 35781 1135 1056274 2.005 38.245780585965 1213 0 1 12 12
389	111007 35781 1135 1056274 2.005 38.245780585965 1213 0 2 77 115
390	146788 35784 1135 1056274 2.005 38.245780585965 1213 0 14 173 677
394	182572 258 625110 917378 20.540446373234 26.262173735996 6 0.540446373234 3.262173735996 11.840444485284 28.943373481227
397	182830 258 634452 908962 20.725630354703 26.086853717467 6 0.725630354703 3.086853717467 11.682364425665 28.031055156995
400	183088 256 650077 919175 21.024190355895 26.292581718659 6 1.024190355895 3.292581718659 13.633690176389 35.765290338162
403	183344 258 862044 947645 25.031605674488 26.978797720371 6 3.445253720376 5.230109720378 26.740466276368 121.37150315586
408	183602 258 660677 944807 21.250844036605 26.919037711523 6 1.250844036605 3.919037711523 16.086479326578 49.941684083737
410	183860 248 668922 954487 21.43446003808 27.121389712999 6 1.43446003808 4.121389712999 17.557174836405 58.391741634402
411	184108 254 677174 965442 21.61839603179 27.329285706707 6 1.61839603179 4.329285706707 18.805670798663 66.085082012646
