version 2
run General-0-20120907-01:05:02-2328
attr configname General
attr datetime 20120907-01:05:02
attr experiment General
attr inifile omnetpp.ini
attr iterationvars ""
attr iterationvars2 $repetition=0
attr measurement ""
attr network csma802154net
attr processid 2328
attr repetition 0
attr replication #0
attr resultdir results
attr runnumber 0
attr seedset 0

vector 386  csma802154net.dataCentricNetworkMan  RREQPacketFrequency  ETV
vector 387  csma802154net.dataCentricNetworkMan  DiscoveryPacketFrequency  ETV
vector 388  csma802154net.dataCentricNetworkMan  RegisterPacketFrequency  ETV
vector 389  csma802154net.dataCentricNetworkMan  RReplyPacketFrequency  ETV
vector 390  csma802154net.dataCentricNetworkMan  AODVDataPacketFrequency  ETV
vector 427  csma802154net.fixhost[36].udpApp  "End-to-end delay"  ETV
vector 383  csma802154net.dataCentricNetworkMan  dataPacketE2EDelay  ETV
383	76266	10.78130075339	0.68130075339
383	76958	10.795948802752	0.695948802752
383	81900	14.155852076561	0.055852076561
383	82592	14.171460125923	0.071460125923
383	86633	18.155852076561	0.055852076561
383	87325	18.170180125923	0.070180125923
383	92767	21.155212076561	0.055212076561
383	93515	21.171140125922	0.071140125922
383	97831	24.15809207656	0.05809207656
383	98523	24.173060125922	0.073060125922
383	102165	27.15553207656	0.05553207656
383	102857	27.171460125922	0.071460125922
383	106509	30.154892076561	0.054892076561
383	107201	30.170180125923	0.070180125923
383	112121	33.15777207656	0.05777207656
383	112813	33.172420125921	0.072420125921
383	116392	36.158092076561	0.058092076561
383	117084	36.174340125923	0.074340125923
383	120663	39.156172076561	0.056172076561
383	121355	39.172420125923	0.072420125923
383	125057	42.155532076561	0.055532076561
383	125749	42.171140125923	0.071140125923
383	129329	45.157452076561	0.057452076561
383	130021	45.173700125923	0.073700125923
383	133600	48.155212076561	0.055212076561
383	134292	48.170180125923	0.070180125923
383	137871	51.15617207656	0.05617207656
383	138563	51.172100125922	0.072100125922
383	142141	54.156172076561	0.056172076561
383	142833	54.172420125923	0.072420125923
383	146412	57.156492076561	0.056492076561
383	147104	57.171140125923	0.071140125923
386	1006	1.005	1
386	1147	1.01	0
386	3030	1.030586446376	203
386	3725	1.035586446376	0
386	7238	1.049295018742	12
386	7376	1.054295018742	0
386	11257	1.083460660316	20
386	11307	1.088460660316	0
386	12710	1.1003613477	98
386	12808	1.1053613477	0
386	13941	1.118530710863	15
386	13999	1.123530710863	0
386	15219	1.135142909917	80
386	15299	1.140142909917	0
386	16334	1.152010401685	67
386	16675	1.157010401685	0
386	17712	1.169838890587	64
386	17891	1.174838890587	0
386	18887	1.186119535508	71
386	19052	1.191119535508	0
386	19709	1.204465170448	17
386	20384	1.209465170448	22
386	20419	1.214465170448	0
386	21468	1.224023551463	45
386	21626	1.229023551463	0
386	22714	1.242986298691	92
386	22749	1.247986298691	0
386	23656	1.26164163385	46
386	23694	1.26664163385	0
386	24170	1.273076968715	9
386	24542	1.278076968715	33
386	24701	1.283076968715	0
386	25433	1.29121797387	28
386	25815	1.29621797387	34
386	25836	1.30121797387	0
386	26660	1.308773431511	22
386	26680	1.313773431511	0
386	27028	1.322141269817	26
386	27631	1.327141269817	36
386	27782	1.332141269817	0
386	28629	1.345568551238	75
386	28768	1.350568551238	0
386	29404	1.364343429494	60
386	29417	1.369343429494	0
386	30064	1.390387550649	2
386	30207	1.395387550649	0
386	30984	1.416973171466	62
386	31127	1.421973171466	0
386	31739	1.44137087461	62
386	31885	1.44637087461	0
386	32701	1.474890782921	0
386	32840	1.479890782921	0
386	33399	1.490253716997	12
386	33408	1.495253716997	0
386	35974	1.570284029735	71
386	35975	1.575284029735	0
386	38521	10.10501	1
386	38522	10.11001	0
386	39584	10.124148729693	114
386	39969	10.129148729693	0
386	41460	10.142563521991	19
386	41574	10.147563521991	0
386	42961	10.15914891904	12
386	43012	10.16414891904	0
386	44275	10.175759586183	24
386	44341	10.180759586183	0
386	45320	10.19282418275	26
386	45407	10.19782418275	0
386	46948	10.209862401442	122
386	47176	10.214862401442	0
386	49014	10.226600592654	37
386	49115	10.231600592654	0
386	50571	10.243874141761	5
386	50622	10.248874141761	0
386	51642	10.260736683213	28
386	51685	10.265736683213	0
386	52760	10.277818686031	54
386	52809	10.282818686031	0
386	53953	10.294795851321	74
386	53976	10.299795851321	0
386	54798	10.313041401666	20
386	55312	10.318041401666	16
386	55361	10.323041401666	0
386	56189	10.330175697347	67
386	56731	10.335175697347	8
386	56802	10.340175697347	0
386	57712	10.347885065569	29
386	58056	10.352885065569	27
386	58096	10.357885065569	0
386	59205	10.364616294436	21
386	59262	10.369616294436	0
386	60424	10.381481497265	12
386	60458	10.386481497265	0
386	61484	10.399044787997	43
386	61529	10.404044787997	0
386	62547	10.416240168516	77
386	62573	10.421240168516	0
386	63662	10.43661481899	61
386	63682	10.44161481899	0
386	64714	10.452929764874	56
386	64726	10.457929764874	0
386	65553	10.469856792626	67
386	65702	10.474856792626	0
386	66012	10.482138067628	3
386	66026	10.487138067628	0
386	66604	10.492762981837	51
386	66846	10.497762981837	19
386	66855	10.502762981837	0
386	67378	10.511480413989	43
386	67384	10.516480413989	0
386	68297	10.528985166733	101
386	68317	10.533985166733	0
386	69008	10.545464977613	78
386	69143	10.550464977613	0
386	69718	10.568164610702	0
386	69860	10.573164610702	0
386	70337	10.5934550168	67
386	70470	10.5984550168	0
386	71000	10.61408111269	78
386	71004	10.61908111269	0
386	71687	10.640758612283	84
386	71688	10.645758612283	0
386	73111	10.683540654062	0
386	73115	10.688540654062	0
386	73806	10.725468676829	0
386	73944	10.730468676829	0
386	74501	10.740116699596	0
386	74639	10.745116699596	0
386	75233	10.755724714462	0
386	75369	10.760724714462	0
386	75935	10.770062728709	0
386	76073	10.775062728709	0
386	79582	14.10501	0
386	79776	14.11001	0
386	80136	14.11501	0
386	80867	14.130596037633	0
386	81003	14.135596037633	0
386	81569	14.14493405188	0
386	81707	14.14993405188	0
386	84312	18.10501	0
386	84313	18.11001	0
386	84866	18.115308022767	0
386	85004	18.120308022767	0
386	85598	18.129956037633	0
386	85736	18.134956037633	0
386	86302	18.14493405188	0
386	86440	18.14993405188	0
386	90339	21.10501	0
386	90340	21.11001	0
386	90901	21.115628022767	0
386	91037	21.120628022767	0
386	91631	21.129956037633	0
386	91809	21.134956037633	0
386	92375	21.14525405188	0
386	92569	21.15025405188	0
386	95510	24.10501	0
386	95511	24.11001	0
386	96064	24.116268022766	0
386	96202	24.121268022766	0
386	96796	24.131876037632	0
386	96934	24.136876037632	0
386	97500	24.147814051879	0
386	97638	24.152814051879	0
386	99847	27.10501	0
386	100042	27.11001	0
386	100405	27.11501	0
386	101130	27.128996037632	0
386	101268	27.133996037632	0
386	101834	27.145254051879	0
386	101972	27.150254051879	0
386	104116	30.10501	0
386	104117	30.11001	0
386	104670	30.115948022767	0
386	104862	30.120948022767	0
386	105456	30.130276037633	0
386	105592	30.135276037633	0
386	106169	30.14461405188	0
386	106307	30.14961405188	0
386	109800	33.10501	0
386	109801	33.11001	0
386	110354	33.115628022767	0
386	110492	33.120628022767	0
386	111086	33.130596037633	0
386	111224	33.135596037633	0
386	111790	33.14685405188	0
386	111928	33.15185405188	0
386	114072	36.10501	0
386	114266	36.11001	0
386	114626	36.11501	0
386	115357	36.130916037633	0
386	115495	36.135916037633	0
386	116061	36.14717405188	0
386	116199	36.15217405188	0
386	118343	39.10501	0
386	118538	39.11001	0
386	118897	39.11501	0
386	119628	39.129316037633	0
386	119766	39.134316037633	0
386	120332	39.14557405188	0
386	120470	39.15057405188	0
386	122739	42.10501	0
386	122933	42.11001	0
386	123293	42.11501	0
386	124024	42.130276037633	0
386	124160	42.135276037633	0
386	124726	42.14461405188	0
386	124864	42.14961405188	0
386	127008	45.10501	0
386	127009	45.11001	0
386	127562	45.115628022767	0
386	127700	45.120628022767	0
386	128294	45.131236037633	0
386	128432	45.136236037633	0
386	128998	45.14653405188	0
386	129136	45.15153405188	0
386	131280	48.10501	0
386	131606	48.11001	0
386	131840	48.11501	0
386	132565	48.128996037633	0
386	132703	48.133996037633	0
386	133269	48.14493405188	0
386	133407	48.14993405188	0
386	135551	51.10501	0
386	135745	51.11001	0
386	136105	51.11501	0
386	136836	51.130276037633	0
386	136974	51.135276037633	0
386	137540	51.145894051879	0
386	137678	51.150894051879	0
386	139822	54.10501	0
386	139823	54.11001	0
386	140376	54.116268022767	0
386	140512	54.121268022767	0
386	141106	54.130596037633	0
386	141244	54.135596037633	0
386	141810	54.14653405188	0
386	141948	54.15153405188	0
386	144092	57.10501	0
386	144287	57.11001	0
386	144646	57.11501	0
386	145377	57.129316037633	0
386	145515	57.134316037633	0
386	146081	57.14557405188	0
386	146219	57.15057405188	0
387	1006	1.005	0
387	1147	1.01	0
387	3030	1.030586446376	0
387	3725	1.035586446376	0
387	7238	1.049295018742	0
387	7376	1.054295018742	0
387	11257	1.083460660316	0
387	11307	1.088460660316	0
387	12710	1.1003613477	0
387	12808	1.1053613477	0
387	13941	1.118530710863	0
387	13999	1.123530710863	0
387	15219	1.135142909917	0
387	15299	1.140142909917	0
387	16334	1.152010401685	0
387	16675	1.157010401685	0
387	17712	1.169838890587	0
387	17891	1.174838890587	0
387	18887	1.186119535508	0
387	19052	1.191119535508	0
387	19709	1.204465170448	0
387	20384	1.209465170448	0
387	20419	1.214465170448	0
387	21468	1.224023551463	0
387	21626	1.229023551463	0
387	22714	1.242986298691	0
387	22749	1.247986298691	0
387	23656	1.26164163385	0
387	23694	1.26664163385	0
387	24170	1.273076968715	0
387	24542	1.278076968715	0
387	24701	1.283076968715	0
387	25433	1.29121797387	0
387	25815	1.29621797387	0
387	25836	1.30121797387	0
387	26660	1.308773431511	0
387	26680	1.313773431511	0
387	27028	1.322141269817	0
387	27631	1.327141269817	0
387	27782	1.332141269817	0
387	28629	1.345568551238	0
387	28768	1.350568551238	0
387	29404	1.364343429494	0
387	29417	1.369343429494	0
387	30064	1.390387550649	0
387	30207	1.395387550649	0
387	30984	1.416973171466	0
387	31127	1.421973171466	0
387	31739	1.44137087461	0
387	31885	1.44637087461	0
387	32701	1.474890782921	0
387	32840	1.479890782921	0
387	33399	1.490253716997	0
387	33408	1.495253716997	0
387	35974	1.570284029735	0
387	35975	1.575284029735	0
387	38521	10.10501	0
387	38522	10.11001	0
387	39584	10.124148729693	0
387	39969	10.129148729693	0
387	41460	10.142563521991	0
387	41574	10.147563521991	0
387	42961	10.15914891904	0
387	43012	10.16414891904	0
387	44275	10.175759586183	0
387	44341	10.180759586183	0
387	45320	10.19282418275	0
387	45407	10.19782418275	0
387	46948	10.209862401442	0
387	47176	10.214862401442	0
387	49014	10.226600592654	0
387	49115	10.231600592654	0
387	50571	10.243874141761	0
387	50622	10.248874141761	0
387	51642	10.260736683213	0
387	51685	10.265736683213	0
387	52760	10.277818686031	0
387	52809	10.282818686031	0
387	53953	10.294795851321	0
387	53976	10.299795851321	0
387	54798	10.313041401666	0
387	55312	10.318041401666	0
387	55361	10.323041401666	0
387	56189	10.330175697347	0
387	56731	10.335175697347	0
387	56802	10.340175697347	0
387	57712	10.347885065569	0
387	58056	10.352885065569	0
387	58096	10.357885065569	0
387	59205	10.364616294436	0
387	59262	10.369616294436	0
387	60424	10.381481497265	0
387	60458	10.386481497265	0
387	61484	10.399044787997	0
387	61529	10.404044787997	0
387	62547	10.416240168516	0
387	62573	10.421240168516	0
387	63662	10.43661481899	0
387	63682	10.44161481899	0
387	64714	10.452929764874	0
387	64726	10.457929764874	0
387	65553	10.469856792626	0
387	65702	10.474856792626	0
387	66012	10.482138067628	0
387	66026	10.487138067628	0
387	66604	10.492762981837	0
387	66846	10.497762981837	0
387	66855	10.502762981837	0
387	67378	10.511480413989	0
387	67384	10.516480413989	0
387	68297	10.528985166733	0
387	68317	10.533985166733	0
387	69008	10.545464977613	0
387	69143	10.550464977613	0
387	69718	10.568164610702	0
387	69860	10.573164610702	0
387	70337	10.5934550168	0
387	70470	10.5984550168	0
387	71000	10.61408111269	0
387	71004	10.61908111269	0
387	71687	10.640758612283	0
387	71688	10.645758612283	0
387	73111	10.683540654062	0
387	73115	10.688540654062	0
387	73806	10.725468676829	0
387	73944	10.730468676829	0
387	74501	10.740116699596	0
387	74639	10.745116699596	0
387	75233	10.755724714462	0
387	75369	10.760724714462	0
387	75935	10.770062728709	0
387	76073	10.775062728709	0
387	79582	14.10501	0
387	79776	14.11001	0
387	80136	14.11501	0
387	80867	14.130596037633	0
387	81003	14.135596037633	0
387	81569	14.14493405188	0
387	81707	14.14993405188	0
387	84312	18.10501	0
387	84313	18.11001	0
387	84866	18.115308022767	0
387	85004	18.120308022767	0
387	85598	18.129956037633	0
387	85736	18.134956037633	0
387	86302	18.14493405188	0
387	86440	18.14993405188	0
387	90339	21.10501	0
387	90340	21.11001	0
387	90901	21.115628022767	0
387	91037	21.120628022767	0
387	91631	21.129956037633	0
387	91809	21.134956037633	0
387	92375	21.14525405188	0
387	92569	21.15025405188	0
387	95510	24.10501	0
387	95511	24.11001	0
387	96064	24.116268022766	0
387	96202	24.121268022766	0
387	96796	24.131876037632	0
387	96934	24.136876037632	0
387	97500	24.147814051879	0
387	97638	24.152814051879	0
387	99847	27.10501	0
387	100042	27.11001	0
387	100405	27.11501	0
387	101130	27.128996037632	0
387	101268	27.133996037632	0
387	101834	27.145254051879	0
387	101972	27.150254051879	0
387	104116	30.10501	0
387	104117	30.11001	0
387	104670	30.115948022767	0
387	104862	30.120948022767	0
387	105456	30.130276037633	0
387	105592	30.135276037633	0
387	106169	30.14461405188	0
387	106307	30.14961405188	0
387	109800	33.10501	0
387	109801	33.11001	0
387	110354	33.115628022767	0
387	110492	33.120628022767	0
387	111086	33.130596037633	0
387	111224	33.135596037633	0
387	111790	33.14685405188	0
387	111928	33.15185405188	0
387	114072	36.10501	0
387	114266	36.11001	0
387	114626	36.11501	0
387	115357	36.130916037633	0
387	115495	36.135916037633	0
387	116061	36.14717405188	0
387	116199	36.15217405188	0
387	118343	39.10501	0
387	118538	39.11001	0
387	118897	39.11501	0
387	119628	39.129316037633	0
387	119766	39.134316037633	0
387	120332	39.14557405188	0
387	120470	39.15057405188	0
387	122739	42.10501	0
387	122933	42.11001	0
387	123293	42.11501	0
387	124024	42.130276037633	0
387	124160	42.135276037633	0
387	124726	42.14461405188	0
387	124864	42.14961405188	0
387	127008	45.10501	0
387	127009	45.11001	0
387	127562	45.115628022767	0
387	127700	45.120628022767	0
387	128294	45.131236037633	0
387	128432	45.136236037633	0
387	128998	45.14653405188	0
387	129136	45.15153405188	0
387	131280	48.10501	0
387	131606	48.11001	0
387	131840	48.11501	0
387	132565	48.128996037633	0
387	132703	48.133996037633	0
387	133269	48.14493405188	0
387	133407	48.14993405188	0
387	135551	51.10501	0
387	135745	51.11001	0
387	136105	51.11501	0
387	136836	51.130276037633	0
387	136974	51.135276037633	0
387	137540	51.145894051879	0
387	137678	51.150894051879	0
387	139822	54.10501	0
387	139823	54.11001	0
387	140376	54.116268022767	0
387	140512	54.121268022767	0
387	141106	54.130596037633	0
387	141244	54.135596037633	0
387	141810	54.14653405188	0
387	141948	54.15153405188	0
387	144092	57.10501	0
387	144287	57.11001	0
387	144646	57.11501	0
387	145377	57.129316037633	0
387	145515	57.134316037633	0
387	146081	57.14557405188	0
387	146219	57.15057405188	0
388	1006	1.005	1
388	1147	1.01	0
388	3030	1.030586446376	0
388	3725	1.035586446376	0
388	7238	1.049295018742	0
388	7376	1.054295018742	0
388	11257	1.083460660316	0
388	11307	1.088460660316	0
388	12710	1.1003613477	0
388	12808	1.1053613477	0
388	13941	1.118530710863	0
388	13999	1.123530710863	0
388	15219	1.135142909917	0
388	15299	1.140142909917	0
388	16334	1.152010401685	0
388	16675	1.157010401685	0
388	17712	1.169838890587	0
388	17891	1.174838890587	0
388	18887	1.186119535508	0
388	19052	1.191119535508	0
388	19709	1.204465170448	0
388	20384	1.209465170448	0
388	20419	1.214465170448	0
388	21468	1.224023551463	0
388	21626	1.229023551463	0
388	22714	1.242986298691	0
388	22749	1.247986298691	0
388	23656	1.26164163385	0
388	23694	1.26664163385	0
388	24170	1.273076968715	0
388	24542	1.278076968715	0
388	24701	1.283076968715	0
388	25433	1.29121797387	0
388	25815	1.29621797387	0
388	25836	1.30121797387	0
388	26660	1.308773431511	0
388	26680	1.313773431511	0
388	27028	1.322141269817	0
388	27631	1.327141269817	0
388	27782	1.332141269817	0
388	28629	1.345568551238	0
388	28768	1.350568551238	0
388	29404	1.364343429494	0
388	29417	1.369343429494	0
388	30064	1.390387550649	0
388	30207	1.395387550649	0
388	30984	1.416973171466	0
388	31127	1.421973171466	0
388	31739	1.44137087461	0
388	31885	1.44637087461	0
388	32701	1.474890782921	0
388	32840	1.479890782921	0
388	33399	1.490253716997	0
388	33408	1.495253716997	0
388	35974	1.570284029735	0
388	35975	1.575284029735	0
388	38521	10.10501	0
388	38522	10.11001	0
388	39584	10.124148729693	0
388	39969	10.129148729693	0
388	41460	10.142563521991	0
388	41574	10.147563521991	0
388	42961	10.15914891904	0
388	43012	10.16414891904	0
388	44275	10.175759586183	0
388	44341	10.180759586183	0
388	45320	10.19282418275	0
388	45407	10.19782418275	0
388	46948	10.209862401442	0
388	47176	10.214862401442	0
388	49014	10.226600592654	0
388	49115	10.231600592654	0
388	50571	10.243874141761	0
388	50622	10.248874141761	0
388	51642	10.260736683213	0
388	51685	10.265736683213	0
388	52760	10.277818686031	0
388	52809	10.282818686031	0
388	53953	10.294795851321	0
388	53976	10.299795851321	0
388	54798	10.313041401666	0
388	55312	10.318041401666	0
388	55361	10.323041401666	0
388	56189	10.330175697347	0
388	56731	10.335175697347	0
388	56802	10.340175697347	0
388	57712	10.347885065569	0
388	58056	10.352885065569	0
388	58096	10.357885065569	0
388	59205	10.364616294436	0
388	59262	10.369616294436	0
388	60424	10.381481497265	0
388	60458	10.386481497265	0
388	61484	10.399044787997	0
388	61529	10.404044787997	0
388	62547	10.416240168516	0
388	62573	10.421240168516	0
388	63662	10.43661481899	0
388	63682	10.44161481899	0
388	64714	10.452929764874	0
388	64726	10.457929764874	0
388	65553	10.469856792626	0
388	65702	10.474856792626	0
388	66012	10.482138067628	0
388	66026	10.487138067628	0
388	66604	10.492762981837	0
388	66846	10.497762981837	0
388	66855	10.502762981837	0
388	67378	10.511480413989	0
388	67384	10.516480413989	0
388	68297	10.528985166733	0
388	68317	10.533985166733	0
388	69008	10.545464977613	0
388	69143	10.550464977613	0
388	69718	10.568164610702	0
388	69860	10.573164610702	0
388	70337	10.5934550168	0
388	70470	10.5984550168	0
388	71000	10.61408111269	0
388	71004	10.61908111269	0
388	71687	10.640758612283	0
388	71688	10.645758612283	0
388	73111	10.683540654062	0
388	73115	10.688540654062	0
388	73806	10.725468676829	0
388	73944	10.730468676829	0
388	74501	10.740116699596	0
388	74639	10.745116699596	0
388	75233	10.755724714462	0
388	75369	10.760724714462	0
388	75935	10.770062728709	0
388	76073	10.775062728709	0
388	79582	14.10501	0
388	79776	14.11001	0
388	80136	14.11501	0
388	80867	14.130596037633	0
388	81003	14.135596037633	0
388	81569	14.14493405188	0
388	81707	14.14993405188	0
388	84312	18.10501	0
388	84313	18.11001	0
388	84866	18.115308022767	0
388	85004	18.120308022767	0
388	85598	18.129956037633	0
388	85736	18.134956037633	0
388	86302	18.14493405188	0
388	86440	18.14993405188	0
388	90339	21.10501	0
388	90340	21.11001	0
388	90901	21.115628022767	0
388	91037	21.120628022767	0
388	91631	21.129956037633	0
388	91809	21.134956037633	0
388	92375	21.14525405188	0
388	92569	21.15025405188	0
388	95510	24.10501	0
388	95511	24.11001	0
388	96064	24.116268022766	0
388	96202	24.121268022766	0
388	96796	24.131876037632	0
388	96934	24.136876037632	0
388	97500	24.147814051879	0
388	97638	24.152814051879	0
388	99847	27.10501	0
388	100042	27.11001	0
388	100405	27.11501	0
388	101130	27.128996037632	0
388	101268	27.133996037632	0
388	101834	27.145254051879	0
388	101972	27.150254051879	0
388	104116	30.10501	0
388	104117	30.11001	0
388	104670	30.115948022767	0
388	104862	30.120948022767	0
388	105456	30.130276037633	0
388	105592	30.135276037633	0
388	106169	30.14461405188	0
388	106307	30.14961405188	0
388	109800	33.10501	0
388	109801	33.11001	0
388	110354	33.115628022767	0
388	110492	33.120628022767	0
388	111086	33.130596037633	0
388	111224	33.135596037633	0
388	111790	33.14685405188	0
388	111928	33.15185405188	0
388	114072	36.10501	0
388	114266	36.11001	0
388	114626	36.11501	0
388	115357	36.130916037633	0
388	115495	36.135916037633	0
388	116061	36.14717405188	0
388	116199	36.15217405188	0
388	118343	39.10501	0
388	118538	39.11001	0
388	118897	39.11501	0
388	119628	39.129316037633	0
388	119766	39.134316037633	0
388	120332	39.14557405188	0
388	120470	39.15057405188	0
388	122739	42.10501	0
388	122933	42.11001	0
388	123293	42.11501	0
388	124024	42.130276037633	0
388	124160	42.135276037633	0
388	124726	42.14461405188	0
388	124864	42.14961405188	0
388	127008	45.10501	0
388	127009	45.11001	0
388	127562	45.115628022767	0
388	127700	45.120628022767	0
388	128294	45.131236037633	0
388	128432	45.136236037633	0
388	128998	45.14653405188	0
388	129136	45.15153405188	0
388	131280	48.10501	0
388	131606	48.11001	0
388	131840	48.11501	0
388	132565	48.128996037633	0
388	132703	48.133996037633	0
388	133269	48.14493405188	0
388	133407	48.14993405188	0
388	135551	51.10501	0
388	135745	51.11001	0
388	136105	51.11501	0
388	136836	51.130276037633	0
388	136974	51.135276037633	0
388	137540	51.145894051879	0
388	137678	51.150894051879	0
388	139822	54.10501	0
388	139823	54.11001	0
388	140376	54.116268022767	0
388	140512	54.121268022767	0
388	141106	54.130596037633	0
388	141244	54.135596037633	0
388	141810	54.14653405188	0
388	141948	54.15153405188	0
388	144092	57.10501	0
388	144287	57.11001	0
388	144646	57.11501	0
388	145377	57.129316037633	0
388	145515	57.134316037633	0
388	146081	57.14557405188	0
388	146219	57.15057405188	0
389	1006	1.005	0
389	1147	1.01	0
389	3030	1.030586446376	1
389	3725	1.035586446376	0
389	7238	1.049295018742	0
389	7376	1.054295018742	0
389	11257	1.083460660316	0
389	11307	1.088460660316	0
389	12710	1.1003613477	0
389	12808	1.1053613477	0
389	13941	1.118530710863	0
389	13999	1.123530710863	0
389	15219	1.135142909917	0
389	15299	1.140142909917	0
389	16334	1.152010401685	0
389	16675	1.157010401685	0
389	17712	1.169838890587	0
389	17891	1.174838890587	0
389	18887	1.186119535508	0
389	19052	1.191119535508	0
389	19709	1.204465170448	0
389	20384	1.209465170448	0
389	20419	1.214465170448	0
389	21468	1.224023551463	0
389	21626	1.229023551463	0
389	22714	1.242986298691	0
389	22749	1.247986298691	0
389	23656	1.26164163385	0
389	23694	1.26664163385	0
389	24170	1.273076968715	0
389	24542	1.278076968715	0
389	24701	1.283076968715	0
389	25433	1.29121797387	0
389	25815	1.29621797387	0
389	25836	1.30121797387	0
389	26660	1.308773431511	0
389	26680	1.313773431511	0
389	27028	1.322141269817	0
389	27631	1.327141269817	0
389	27782	1.332141269817	0
389	28629	1.345568551238	0
389	28768	1.350568551238	0
389	29404	1.364343429494	0
389	29417	1.369343429494	0
389	30064	1.390387550649	0
389	30207	1.395387550649	0
389	30984	1.416973171466	0
389	31127	1.421973171466	0
389	31739	1.44137087461	0
389	31885	1.44637087461	0
389	32701	1.474890782921	1
389	32840	1.479890782921	0
389	33399	1.490253716997	0
389	33408	1.495253716997	0
389	35974	1.570284029735	0
389	35975	1.575284029735	0
389	38521	10.10501	0
389	38522	10.11001	0
389	39584	10.124148729693	0
389	39969	10.129148729693	0
389	41460	10.142563521991	0
389	41574	10.147563521991	0
389	42961	10.15914891904	0
389	43012	10.16414891904	0
389	44275	10.175759586183	0
389	44341	10.180759586183	0
389	45320	10.19282418275	0
389	45407	10.19782418275	0
389	46948	10.209862401442	0
389	47176	10.214862401442	0
389	49014	10.226600592654	0
389	49115	10.231600592654	0
389	50571	10.243874141761	0
389	50622	10.248874141761	0
389	51642	10.260736683213	0
389	51685	10.265736683213	0
389	52760	10.277818686031	0
389	52809	10.282818686031	0
389	53953	10.294795851321	0
389	53976	10.299795851321	0
389	54798	10.313041401666	0
389	55312	10.318041401666	0
389	55361	10.323041401666	0
389	56189	10.330175697347	1
389	56731	10.335175697347	0
389	56802	10.340175697347	0
389	57712	10.347885065569	0
389	58056	10.352885065569	0
389	58096	10.357885065569	0
389	59205	10.364616294436	0
389	59262	10.369616294436	0
389	60424	10.381481497265	0
389	60458	10.386481497265	0
389	61484	10.399044787997	0
389	61529	10.404044787997	0
389	62547	10.416240168516	0
389	62573	10.421240168516	0
389	63662	10.43661481899	0
389	63682	10.44161481899	0
389	64714	10.452929764874	0
389	64726	10.457929764874	0
389	65553	10.469856792626	0
389	65702	10.474856792626	0
389	66012	10.482138067628	0
389	66026	10.487138067628	0
389	66604	10.492762981837	0
389	66846	10.497762981837	0
389	66855	10.502762981837	0
389	67378	10.511480413989	0
389	67384	10.516480413989	0
389	68297	10.528985166733	0
389	68317	10.533985166733	0
389	69008	10.545464977613	0
389	69143	10.550464977613	0
389	69718	10.568164610702	2
389	69860	10.573164610702	0
389	70337	10.5934550168	0
389	70470	10.5984550168	0
389	71000	10.61408111269	0
389	71004	10.61908111269	0
389	71687	10.640758612283	0
389	71688	10.645758612283	0
389	73111	10.683540654062	2
389	73115	10.688540654062	0
389	73806	10.725468676829	1
389	73944	10.730468676829	0
389	74501	10.740116699596	0
389	74639	10.745116699596	0
389	75233	10.755724714462	0
389	75369	10.760724714462	0
389	75935	10.770062728709	0
389	76073	10.775062728709	0
389	79582	14.10501	0
389	79776	14.11001	0
389	80136	14.11501	0
389	80867	14.130596037633	0
389	81003	14.135596037633	0
389	81569	14.14493405188	0
389	81707	14.14993405188	0
389	84312	18.10501	0
389	84313	18.11001	0
389	84866	18.115308022767	0
389	85004	18.120308022767	0
389	85598	18.129956037633	0
389	85736	18.134956037633	0
389	86302	18.14493405188	0
389	86440	18.14993405188	0
389	90339	21.10501	0
389	90340	21.11001	0
389	90901	21.115628022767	0
389	91037	21.120628022767	0
389	91631	21.129956037633	0
389	91809	21.134956037633	0
389	92375	21.14525405188	0
389	92569	21.15025405188	0
389	95510	24.10501	0
389	95511	24.11001	0
389	96064	24.116268022766	0
389	96202	24.121268022766	0
389	96796	24.131876037632	0
389	96934	24.136876037632	0
389	97500	24.147814051879	0
389	97638	24.152814051879	0
389	99847	27.10501	0
389	100042	27.11001	0
389	100405	27.11501	0
389	101130	27.128996037632	0
389	101268	27.133996037632	0
389	101834	27.145254051879	0
389	101972	27.150254051879	0
389	104116	30.10501	0
389	104117	30.11001	0
389	104670	30.115948022767	0
389	104862	30.120948022767	0
389	105456	30.130276037633	0
389	105592	30.135276037633	0
389	106169	30.14461405188	0
389	106307	30.14961405188	0
389	109800	33.10501	0
389	109801	33.11001	0
389	110354	33.115628022767	0
389	110492	33.120628022767	0
389	111086	33.130596037633	0
389	111224	33.135596037633	0
389	111790	33.14685405188	0
389	111928	33.15185405188	0
389	114072	36.10501	0
389	114266	36.11001	0
389	114626	36.11501	0
389	115357	36.130916037633	0
389	115495	36.135916037633	0
389	116061	36.14717405188	0
389	116199	36.15217405188	0
389	118343	39.10501	0
389	118538	39.11001	0
389	118897	39.11501	0
389	119628	39.129316037633	0
389	119766	39.134316037633	0
389	120332	39.14557405188	0
389	120470	39.15057405188	0
389	122739	42.10501	0
389	122933	42.11001	0
389	123293	42.11501	0
389	124024	42.130276037633	0
389	124160	42.135276037633	0
389	124726	42.14461405188	0
389	124864	42.14961405188	0
389	127008	45.10501	0
389	127009	45.11001	0
389	127562	45.115628022767	0
389	127700	45.120628022767	0
389	128294	45.131236037633	0
389	128432	45.136236037633	0
389	128998	45.14653405188	0
389	129136	45.15153405188	0
389	131280	48.10501	0
389	131606	48.11001	0
389	131840	48.11501	0
389	132565	48.128996037633	0
389	132703	48.133996037633	0
389	133269	48.14493405188	0
389	133407	48.14993405188	0
389	135551	51.10501	0
389	135745	51.11001	0
389	136105	51.11501	0
389	136836	51.130276037633	0
389	136974	51.135276037633	0
389	137540	51.145894051879	0
389	137678	51.150894051879	0
389	139822	54.10501	0
389	139823	54.11001	0
389	140376	54.116268022767	0
389	140512	54.121268022767	0
389	141106	54.130596037633	0
389	141244	54.135596037633	0
389	141810	54.14653405188	0
389	141948	54.15153405188	0
389	144092	57.10501	0
389	144287	57.11001	0
389	144646	57.11501	0
389	145377	57.129316037633	0
389	145515	57.134316037633	0
389	146081	57.14557405188	0
389	146219	57.15057405188	0
390	1006	1.005	0
390	1147	1.01	0
390	3030	1.030586446376	1
390	3725	1.035586446376	0
390	7238	1.049295018742	0
390	7376	1.054295018742	0
390	11257	1.083460660316	0
390	11307	1.088460660316	0
390	12710	1.1003613477	0
390	12808	1.1053613477	0
390	13941	1.118530710863	0
390	13999	1.123530710863	0
390	15219	1.135142909917	0
390	15299	1.140142909917	0
390	16334	1.152010401685	0
390	16675	1.157010401685	0
390	17712	1.169838890587	0
390	17891	1.174838890587	0
390	18887	1.186119535508	0
390	19052	1.191119535508	0
390	19709	1.204465170448	0
390	20384	1.209465170448	0
390	20419	1.214465170448	0
390	21468	1.224023551463	0
390	21626	1.229023551463	0
390	22714	1.242986298691	0
390	22749	1.247986298691	0
390	23656	1.26164163385	0
390	23694	1.26664163385	0
390	24170	1.273076968715	0
390	24542	1.278076968715	0
390	24701	1.283076968715	0
390	25433	1.29121797387	0
390	25815	1.29621797387	0
390	25836	1.30121797387	0
390	26660	1.308773431511	0
390	26680	1.313773431511	0
390	27028	1.322141269817	0
390	27631	1.327141269817	0
390	27782	1.332141269817	0
390	28629	1.345568551238	0
390	28768	1.350568551238	0
390	29404	1.364343429494	0
390	29417	1.369343429494	0
390	30064	1.390387550649	0
390	30207	1.395387550649	0
390	30984	1.416973171466	0
390	31127	1.421973171466	0
390	31739	1.44137087461	0
390	31885	1.44637087461	0
390	32701	1.474890782921	2
390	32840	1.479890782921	0
390	33399	1.490253716997	0
390	33408	1.495253716997	0
390	35974	1.570284029735	0
390	35975	1.575284029735	0
390	38521	10.10501	0
390	38522	10.11001	0
390	39584	10.124148729693	0
390	39969	10.129148729693	0
390	41460	10.142563521991	0
390	41574	10.147563521991	0
390	42961	10.15914891904	0
390	43012	10.16414891904	0