version 2
run General-0-20120907-16:04:01-2224
attr configname General
attr datetime 20120907-16:04:01
attr experiment General
attr inifile omnetpp.ini
attr iterationvars ""
attr iterationvars2 $repetition=0
attr measurement ""
attr network csma802154net
attr processid 2224
attr repetition 0
attr replication #0
attr resultdir results
attr runnumber 0
attr seedset 0

vector 386  csma802154net.dataCentricNetworkMan  RREQPacketFrequency  ETV
vector 387  csma802154net.dataCentricNetworkMan  DiscoveryPacketFrequency  ETV
vector 388  csma802154net.dataCentricNetworkMan  RegisterPacketFrequency  ETV
vector 389  csma802154net.dataCentricNetworkMan  RReplyPacketFrequency  ETV
vector 390  csma802154net.dataCentricNetworkMan  AODVDataPacketFrequency  ETV
vector 427  csma802154net.fixhost[36].udpApp  "End-to-end delay"  ETV
vector 383  csma802154net.dataCentricNetworkMan  dataPacketE2EDelay  ETV
383	44930	10.904405744173	0.804405744173
383	52090	11.063661744173	0.963661744173
383	65884	14.288924071428	0.188924071428
383	82757	18.324540071428	0.224540071428
383	85514	18.385532071428	0.285532071428
383	98534	21.254596071428	0.154596071428
383	105377	21.423156071428	0.323156071428
383	120678	24.359068071427	0.259068071427
383	122714	24.410892071427	0.310892071427
383	136723	27.238100071428	0.138100071428
383	140416	27.381540071428	0.281540071428
383	154782	30.293884071426	0.193884071426
383	158314	30.389964071426	0.289964071426
383	173754	33.294692071423	0.194692071423
383	174447	33.309300071422	0.209300071422
383	191459	36.367988071427	0.267988071427
383	192840	36.416404071427	0.316404071427
383	210863	42.249900071427	0.149900071427
383	212186	42.280716071427	0.180716071427
383	230964	45.363228071427	0.263228071427
383	232345	45.395964071427	0.295964071427
383	247584	48.381244071427	0.281244071427
383	251029	48.486924071426	0.386924071426
383	267919	51.409972071427	0.309972071427
383	271364	51.521412071426	0.421412071426
383	287038	54.307204071424	0.207204071424
383	302214	57.362828071425	0.262828071425
386	1006	1.005	1
386	1147	1.01	0
386	1795	1.030586446376	102
386	1930	1.035586446376	0
386	2498	1.052196940659	0
386	2769	1.057196940659	0
386	14510	10.10501	1
386	14651	10.11001	0
386	15068	10.129848818513	57
386	15069	10.134848818513	0
386	15071	10.34501	1
386	15212	10.35001	0
386	16273	10.369788453359	114
386	16659	10.374788453359	0
386	18031	10.388702974114	48
386	18254	10.393702974114	0
386	19718	10.405346558903	82
386	19879	10.410346558903	0
386	21259	10.421697286862	40
386	21403	10.426697286862	0
386	22979	10.43858811548	49
386	23032	10.44358811548	0
386	24411	10.455295868508	8
386	24470	10.460295868508	0
386	25468	10.472511433753	38
386	25622	10.477511433753	0
386	26367	10.489239851494	51
386	26853	10.494239851494	14
386	26870	10.499239851494	0
386	27673	10.510944387922	41
386	27681	10.515944387922	0
386	28578	10.528240899694	58
386	28839	10.533240899694	0
386	29373	10.546029858063	15
386	29755	10.551029858063	42
386	29771	10.556029858063	0
386	30228	10.565280228848	37
386	30229	10.570280228848	0
386	30862	10.580349653267	0
386	31000	10.585349653267	0
386	31727	10.604357672746	0
386	31871	10.609357672746	0
386	32589	10.618685692225	0
386	32861	10.623685692225	0
386	42841	10.862621705127	0
386	42983	10.867621705127	0
386	44591	10.893487719492	0
386	44730	10.898487719492	0
386	56790	14.10501	0
386	56985	14.11001	0
386	57371	14.11501	0
386	60272	14.172820032382	0
386	60545	14.177820032382	0
386	61406	14.189078046747	0
386	61556	14.194078046747	0
386	71080	18.10501	0
386	71081	18.11001	0
386	71658	18.115948019479	0
386	71929	18.120948019479	0
386	72680	18.131236032382	0
386	72951	18.136236032382	0
386	77576	18.222134046747	0
386	77847	18.227134046747	0
386	90969	21.10501	0
386	91163	21.11001	0
386	91547	21.11501	0
386	92568	21.129636032382	0
386	92717	21.134636032382	0
386	98205	21.245278046747	0
386	98341	21.250278046747	0
386	110077	24.10501	0
386	110271	24.11001	0
386	110655	24.11501	0
386	114964	24.234996032381	0
386	115102	24.239996032381	0
386	115672	24.250294046746	0
386	115943	24.255294046746	0
386	128297	27.10501	0
386	128298	27.11001	0
386	128875	27.115628019479	0
386	129146	27.120628019479	0
386	129894	27.130276032382	0
386	130173	27.135276032382	0
386	130898	27.145254046747	0
386	131302	27.150254046747	0
386	145116	30.10501	0
386	145311	30.11001	0
386	145694	30.11501	0
386	146712	30.130276032382	0
386	146987	30.135276032382	0
386	147709	30.144614046747	0
386	147990	30.149614046747	0
386	163456	33.10501	0
386	163782	33.11001	0
386	164037	33.11501	0
386	165055	33.130596032382	0
386	165205	33.135596032382	0
386	168005	33.181438046746	0
386	168343	33.186438046746	0
386	179147	36.10501	0
386	179148	36.11001	0
386	179725	36.115948019478	0
386	179867	36.120948019478	0
386	184031	36.215796032381	0
386	184167	36.220796032381	0
386	184871	36.230134046746	0
386	185206	36.235134046746	0
386	197540	39.10501	0
386	197734	39.11001	0
386	198118	39.11501	0
386	202699	42.10501	0
386	202700	42.11001	0
386	203277	42.116268019479	0
386	203415	42.121268019479	0
386	205003	42.147124032382	0
386	205408	42.152124032382	0
386	206258	42.162742046746	0
386	206669	42.167742046746	0
386	218279	45.10501	0
386	218280	45.11001	0
386	218857	45.115948019478	0
386	219003	45.120948019478	0
386	223170	45.210676032381	0
386	223306	45.215676032381	0
386	223876	45.225014046746	0
386	224018	45.230014046746	0
386	237045	48.10501	0
386	237046	48.11001	0
386	237623	48.116268019479	0
386	237894	48.121268019479	0
386	238645	48.131236032382	0
386	238787	48.136236032382	0
386	240539	48.162422046747	0
386	240993	48.167422046747	0
386	255729	51.10501	0
386	255730	51.11001	0
386	256307	51.115948019478	0
386	256449	51.120948019478	0
386	260617	51.240116032381	0
386	260621	51.245116032381	0
386	262981	51.293910046746	0
386	263323	51.298910046746	0
386	276064	54.10501	0
386	276065	54.11001	0
386	276642	54.115948019478	0
386	276783	54.120948019478	0
386	278258	54.14616403238	0
386	278396	54.15116403238	0
386	279129	54.162422046745	0
386	279532	54.167422046745	0
386	291738	57.10501	0
386	291739	57.11001	0
386	292316	57.115628019479	0
386	292458	57.120628019479	0
386	296626	57.22571603238	0
386	296630	57.23071603238	0
386	297334	57.245814046745	0
386	297605	57.250814046745	0
387	1006	1.005	0
387	1147	1.01	0
387	1795	1.030586446376	0
387	1930	1.035586446376	0
387	2498	1.052196940659	0
387	2769	1.057196940659	0
387	14510	10.10501	0
387	14651	10.11001	0
387	15068	10.129848818513	0
387	15069	10.134848818513	0
387	15071	10.34501	0
387	15212	10.35001	0
387	16273	10.369788453359	0
387	16659	10.374788453359	0
387	18031	10.388702974114	0
387	18254	10.393702974114	0
387	19718	10.405346558903	0
387	19879	10.410346558903	0
387	21259	10.421697286862	0
387	21403	10.426697286862	0
387	22979	10.43858811548	0
387	23032	10.44358811548	0
387	24411	10.455295868508	0
387	24470	10.460295868508	0
387	25468	10.472511433753	0
387	25622	10.477511433753	0
387	26367	10.489239851494	0
387	26853	10.494239851494	0
387	26870	10.499239851494	0
387	27673	10.510944387922	0
387	27681	10.515944387922	0
387	28578	10.528240899694	0
387	28839	10.533240899694	0
387	29373	10.546029858063	0
387	29755	10.551029858063	0
387	29771	10.556029858063	0
387	30228	10.565280228848	0
387	30229	10.570280228848	0
387	30862	10.580349653267	0
387	31000	10.585349653267	0
387	31727	10.604357672746	0
387	31871	10.609357672746	0
387	32589	10.618685692225	0
387	32861	10.623685692225	0
387	42841	10.862621705127	0
387	42983	10.867621705127	0
387	44591	10.893487719492	0
387	44730	10.898487719492	0
387	56790	14.10501	0
387	56985	14.11001	0
387	57371	14.11501	0
387	60272	14.172820032382	0
387	60545	14.177820032382	0
387	61406	14.189078046747	0
387	61556	14.194078046747	0
387	71080	18.10501	0
387	71081	18.11001	0
387	71658	18.115948019479	0
387	71929	18.120948019479	0
387	72680	18.131236032382	0
387	72951	18.136236032382	0
387	77576	18.222134046747	0
387	77847	18.227134046747	0
387	90969	21.10501	0
387	91163	21.11001	0
387	91547	21.11501	0
387	92568	21.129636032382	0
387	92717	21.134636032382	0
387	98205	21.245278046747	0
387	98341	21.250278046747	0
387	110077	24.10501	0
387	110271	24.11001	0
387	110655	24.11501	0
387	114964	24.234996032381	0
387	115102	24.239996032381	0
387	115672	24.250294046746	0
387	115943	24.255294046746	0
387	128297	27.10501	0
387	128298	27.11001	0
387	128875	27.115628019479	0
387	129146	27.120628019479	0
387	129894	27.130276032382	0
387	130173	27.135276032382	0
387	130898	27.145254046747	0
387	131302	27.150254046747	0
387	145116	30.10501	0
387	145311	30.11001	0
387	145694	30.11501	0
387	146712	30.130276032382	0
387	146987	30.135276032382	0
387	147709	30.144614046747	0
387	147990	30.149614046747	0
387	163456	33.10501	0
387	163782	33.11001	0
387	164037	33.11501	0
387	165055	33.130596032382	0
387	165205	33.135596032382	0
387	168005	33.181438046746	0
387	168343	33.186438046746	0
387	179147	36.10501	0
387	179148	36.11001	0
387	179725	36.115948019478	0
387	179867	36.120948019478	0
387	184031	36.215796032381	0
387	184167	36.220796032381	0
387	184871	36.230134046746	0
387	185206	36.235134046746	0
387	197540	39.10501	0
387	197734	39.11001	0
387	198118	39.11501	0
387	202699	42.10501	0
387	202700	42.11001	0
387	203277	42.116268019479	0
387	203415	42.121268019479	0
387	205003	42.147124032382	0
387	205408	42.152124032382	0
387	206258	42.162742046746	0
387	206669	42.167742046746	0
387	218279	45.10501	0
387	218280	45.11001	0
387	218857	45.115948019478	0
387	219003	45.120948019478	0
387	223170	45.210676032381	0
387	223306	45.215676032381	0
387	223876	45.225014046746	0
387	224018	45.230014046746	0
387	237045	48.10501	0
387	237046	48.11001	0
387	237623	48.116268019479	0
387	237894	48.121268019479	0
387	238645	48.131236032382	0
387	238787	48.136236032382	0
387	240539	48.162422046747	0
387	240993	48.167422046747	0
387	255729	51.10501	0
387	255730	51.11001	0
387	256307	51.115948019478	0
387	256449	51.120948019478	0
387	260617	51.240116032381	0
387	260621	51.245116032381	0
387	262981	51.293910046746	0
387	263323	51.298910046746	0
387	276064	54.10501	0
387	276065	54.11001	0
387	276642	54.115948019478	0
387	276783	54.120948019478	0
387	278258	54.14616403238	0
387	278396	54.15116403238	0
387	279129	54.162422046745	0
387	279532	54.167422046745	0
387	291738	57.10501	0
387	291739	57.11001	0
387	292316	57.115628019479	0
387	292458	57.120628019479	0
387	296626	57.22571603238	0
387	296630	57.23071603238	0
387	297334	57.245814046745	0
387	297605	57.250814046745	0
388	1006	1.005	1
388	1147	1.01	0
388	1795	1.030586446376	0
388	1930	1.035586446376	0
388	2498	1.052196940659	0
388	2769	1.057196940659	0
388	14510	10.10501	0
388	14651	10.11001	0
388	15068	10.129848818513	0
388	15069	10.134848818513	0
388	15071	10.34501	0
388	15212	10.35001	0
388	16273	10.369788453359	0
388	16659	10.374788453359	0
388	18031	10.388702974114	0
388	18254	10.393702974114	0
388	19718	10.405346558903	0
388	19879	10.410346558903	0
388	21259	10.421697286862	0
388	21403	10.426697286862	0
388	22979	10.43858811548	0
388	23032	10.44358811548	0
388	24411	10.455295868508	0
388	24470	10.460295868508	0
388	25468	10.472511433753	0
388	25622	10.477511433753	0
388	26367	10.489239851494	0
388	26853	10.494239851494	0
388	26870	10.499239851494	0
388	27673	10.510944387922	0
388	27681	10.515944387922	0
388	28578	10.528240899694	0
388	28839	10.533240899694	0
388	29373	10.546029858063	0
388	29755	10.551029858063	0
388	29771	10.556029858063	0
388	30228	10.565280228848	0
388	30229	10.570280228848	0
388	30862	10.580349653267	0
388	31000	10.585349653267	0
388	31727	10.604357672746	0
388	31871	10.609357672746	0
388	32589	10.618685692225	0
388	32861	10.623685692225	0
388	42841	10.862621705127	0
388	42983	10.867621705127	0
388	44591	10.893487719492	0
388	44730	10.898487719492	0
388	56790	14.10501	0
388	56985	14.11001	0
388	57371	14.11501	0
388	60272	14.172820032382	0
388	60545	14.177820032382	0
388	61406	14.189078046747	0
388	61556	14.194078046747	0
388	71080	18.10501	0
388	71081	18.11001	0
388	71658	18.115948019479	0
388	71929	18.120948019479	0
388	72680	18.131236032382	0
388	72951	18.136236032382	0
388	77576	18.222134046747	0
388	77847	18.227134046747	0
388	90969	21.10501	0
388	91163	21.11001	0
388	91547	21.11501	0
388	92568	21.129636032382	0
388	92717	21.134636032382	0
388	98205	21.245278046747	0
388	98341	21.250278046747	0
388	110077	24.10501	0
388	110271	24.11001	0
388	110655	24.11501	0
388	114964	24.234996032381	0
388	115102	24.239996032381	0
388	115672	24.250294046746	0
388	115943	24.255294046746	0
388	128297	27.10501	0
388	128298	27.11001	0
388	128875	27.115628019479	0
388	129146	27.120628019479	0
388	129894	27.130276032382	0
388	130173	27.135276032382	0
388	130898	27.145254046747	0
388	131302	27.150254046747	0
388	145116	30.10501	0
388	145311	30.11001	0
388	145694	30.11501	0
388	146712	30.130276032382	0
388	146987	30.135276032382	0
388	147709	30.144614046747	0
388	147990	30.149614046747	0
388	163456	33.10501	0
388	163782	33.11001	0
388	164037	33.11501	0
388	165055	33.130596032382	0
388	165205	33.135596032382	0
388	168005	33.181438046746	0
388	168343	33.186438046746	0
388	179147	36.10501	0
388	179148	36.11001	0
388	179725	36.115948019478	0
388	179867	36.120948019478	0
388	184031	36.215796032381	0
388	184167	36.220796032381	0
388	184871	36.230134046746	0
388	185206	36.235134046746	0
388	197540	39.10501	0
388	197734	39.11001	0
388	198118	39.11501	0
388	202699	42.10501	0
388	202700	42.11001	0
388	203277	42.116268019479	0
388	203415	42.121268019479	0
388	205003	42.147124032382	0
388	205408	42.152124032382	0
388	206258	42.162742046746	0
388	206669	42.167742046746	0
388	218279	45.10501	0
388	218280	45.11001	0
388	218857	45.115948019478	0
388	219003	45.120948019478	0
388	223170	45.210676032381	0
388	223306	45.215676032381	0
388	223876	45.225014046746	0
388	224018	45.230014046746	0
388	237045	48.10501	0
388	237046	48.11001	0
388	237623	48.116268019479	0
388	237894	48.121268019479	0
388	238645	48.131236032382	0
388	238787	48.136236032382	0
388	240539	48.162422046747	0
388	240993	48.167422046747	0
388	255729	51.10501	0
388	255730	51.11001	0
388	256307	51.115948019478	0
388	256449	51.120948019478	0
388	260617	51.240116032381	0
388	260621	51.245116032381	0
388	262981	51.293910046746	0
388	263323	51.298910046746	0
388	276064	54.10501	0
388	276065	54.11001	0
388	276642	54.115948019478	0
388	276783	54.120948019478	0
388	278258	54.14616403238	0
388	278396	54.15116403238	0
388	279129	54.162422046745	0
388	279532	54.167422046745	0
388	291738	57.10501	0
388	291739	57.11001	0
388	292316	57.115628019479	0
388	292458	57.120628019479	0
388	296626	57.22571603238	0
388	296630	57.23071603238	0
388	297334	57.245814046745	0
388	297605	57.250814046745	0
389	1006	1.005	0
389	1147	1.01	0
389	1795	1.030586446376	1
389	1930	1.035586446376	0
389	2498	1.052196940659	1
389	2769	1.057196940659	0
389	14510	10.10501	0
389	14651	10.11001	0
389	15068	10.129848818513	0
389	15069	10.134848818513	0
389	15071	10.34501	0
389	15212	10.35001	0
389	16273	10.369788453359	0
389	16659	10.374788453359	0
389	18031	10.388702974114	0
389	18254	10.393702974114	0
389	19718	10.405346558903	0
389	19879	10.410346558903	0
389	21259	10.421697286862	0
389	21403	10.426697286862	0
389	22979	10.43858811548	1
389	23032	10.44358811548	0
389	24411	10.455295868508	0
389	24470	10.460295868508	0
389	25468	10.472511433753	0
389	25622	10.477511433753	0
389	26367	10.489239851494	0
389	26853	10.494239851494	0
389	26870	10.499239851494	0
389	27673	10.510944387922	0
389	27681	10.515944387922	0
389	28578	10.528240899694	2
389	28839	10.533240899694	0
389	29373	10.546029858063	0
389	29755	10.551029858063	0
389	29771	10.556029858063	0
389	30228	10.565280228848	0
389	30229	10.570280228848	0
389	30862	10.580349653267	2
389	31000	10.585349653267	0
389	31727	10.604357672746	1
389	31871	10.609357672746	0
389	32589	10.618685692225	0
389	32861	10.623685692225	0
389	42841	10.862621705127	0
389	42983	10.867621705127	0
389	44591	10.893487719492	0
389	44730	10.898487719492	0
389	56790	14.10501	0
389	56985	14.11001	0
389	57371	14.11501	0
389	60272	14.172820032382	0
389	60545	14.177820032382	0
389	61406	14.189078046747	0
389	61556	14.194078046747	0
389	71080	18.10501	0
389	71081	18.11001	0
389	71658	18.115948019479	0
389	71929	18.120948019479	0
389	72680	18.131236032382	0
389	72951	18.136236032382	0
389	77576	18.222134046747	0
389	77847	18.227134046747	0
389	90969	21.10501	0
389	91163	21.11001	0
389	91547	21.11501	0
389	92568	21.129636032382	0
389	92717	21.134636032382	0
389	98205	21.245278046747	0
389	98341	21.250278046747	0
389	110077	24.10501	0
389	110271	24.11001	0
389	110655	24.11501	0
389	114964	24.234996032381	0
389	115102	24.239996032381	0
389	115672	24.250294046746	0
389	115943	24.255294046746	0
389	128297	27.10501	0
389	128298	27.11001	0
389	128875	27.115628019479	0
389	129146	27.120628019479	0
389	129894	27.130276032382	0
389	130173	27.135276032382	0
389	130898	27.145254046747	0
389	131302	27.150254046747	0
389	145116	30.10501	0
389	145311	30.11001	0
389	145694	30.11501	0
389	146712	30.130276032382	0
389	146987	30.135276032382	0
389	147709	30.144614046747	0
389	147990	30.149614046747	0
389	163456	33.10501	0
389	163782	33.11001	0
389	164037	33.11501	0
389	165055	33.130596032382	0
389	165205	33.135596032382	0
389	168005	33.181438046746	0
389	168343	33.186438046746	0
389	179147	36.10501	0
389	179148	36.11001	0
389	179725	36.115948019478	0
389	179867	36.120948019478	0
389	184031	36.215796032381	0
389	184167	36.220796032381	0
389	184871	36.230134046746	0
389	185206	36.235134046746	0
389	197540	39.10501	0
389	197734	39.11001	0
389	198118	39.11501	0
389	202699	42.10501	0
389	202700	42.11001	0
389	203277	42.116268019479	0
389	203415	42.121268019479	0
389	205003	42.147124032382	0
389	205408	42.152124032382	0
389	206258	42.162742046746	0
389	206669	42.167742046746	0
389	218279	45.10501	0
389	218280	45.11001	0
389	218857	45.115948019478	0
389	219003	45.120948019478	0
389	223170	45.210676032381	0
389	223306	45.215676032381	0
389	223876	45.225014046746	0
389	224018	45.230014046746	0
389	237045	48.10501	0
389	237046	48.11001	0
389	237623	48.116268019479	0
389	237894	48.121268019479	0
389	238645	48.131236032382	0
389	238787	48.136236032382	0
389	240539	48.162422046747	0
389	240993	48.167422046747	0
389	255729	51.10501	0
389	255730	51.11001	0
389	256307	51.115948019478	0
389	256449	51.120948019478	0
389	260617	51.240116032381	0
389	260621	51.245116032381	0
389	262981	51.293910046746	0
389	263323	51.298910046746	0
389	276064	54.10501	0
389	276065	54.11001	0
389	276642	54.115948019478	0
389	276783	54.120948019478	0
389	278258	54.14616403238	0
389	278396	54.15116403238	0
389	279129	54.162422046745	0
389	279532	54.167422046745	0
389	291738	57.10501	0
389	291739	57.11001	0
389	292316	57.115628019479	0
389	292458	57.120628019479	0
389	296626	57.22571603238	0
389	296630	57.23071603238	0
389	297334	57.245814046745	0
389	297605	57.250814046745	0
390	1006	1.005	0
390	1147	1.01	0
390	1795	1.030586446376	1
390	1930	1.035586446376	0
390	2498	1.052196940659	2
390	2769	1.057196940659	0
390	14510	10.10501	0
390	14651	10.11001	0
390	15068	10.129848818513	0
390	15069	10.134848818513	0
390	15071	10.34501	0
390	15212	10.35001	0
390	16273	10.369788453359	0
390	16659	10.374788453359	0
390	18031	10.388702974114	0
390	18254	10.393702974114	0
390	19718	10.405346558903	0
390	19879	10.410346558903	0
390	21259	10.421697286862	0
390	21403	10.426697286862	0
390	22979	10.43858811548	1
390	23032	10.44358811548	0
390	24411	10.455295868508	0
390	24470	10.460295868508	0
390	25468	10.472511433753	0
390	25622	10.477511433753	0
390	26367	10.489239851494	0
390	26853	10.494239851494	0
390	26870	10.499239851494	0
390	27673	10.510944387922	0
390	27681	10.515944387922	0
390	28578	10.528240899694	2
390	28839	10.533240899694	0
390	29373	10.546029858063	0
390	29755	10.551029858063	0
390	29771	10.556029858063	0
390	30228	10.565280228848	0
390	30229	10.570280228848	0
390	30862	10.580349653267	1
390	31000	10.585349653267	0
390	31727	10.604357672746	1
390	31871	10.609357672746	0
390	32589	10.618685692225	1
390	32861	10.623685692225	0
390	42841	10.862621705127	1
390	42983	10.867621705127	0
390	44591	10.893487719492	2
390	44730	10.898487719492	0
390	56790	14.10501	1
390	56985	14.11001	1
390	57371	14.11501	0
390	60272	14.172820032382	1
390	60545	14.177820032382	0
390	61406	14.189078046747	2
390	61556	14.194078046747	0
390	71080	18.10501	1
390	71081	18.11001	0
390	71658	18.115948019479	1
390	71929	18.120948019479	0
390	72680	18.131236032382	1
390	72951	18.136236032382	0
390	77576	18.222134046747	2
390	77847	18.227134046747	0
390	90969	21.10501	1
390	91163	21.11001	1
390	91547	21.11501	0
390	92568	21.129636032382	1
390	92717	21.134636032382	0
390	98205	21.245278046747	2
390	98341	21.250278046747	0
390	110077	24.10501	1
390	110271	24.11001	1
390	110655	24.11501	0
390	114964	24.234996032381	1
390	115102	24.239996032381	0
390	115672	24.250294046746	2
390	115943	24.255294046746	0
390	128297	27.10501	1
390	128298	27.11001	0
390	128875	27.115628019479	1
390	129146	27.120628019479	0
390	129894	27.130276032382	1
390	130173	27.135276032382	0
390	130898	27.145254046747	2
390	131302	27.150254046747	0
390	145116	30.10501	1
390	145311	30.11001	1
390	145694	30.11501	0
390	146712	30.130276032382	1
390	146987	30.135276032382	0
390	147709	30.144614046747	2
390	147990	30.149614046747	0
390	163456	33.10501	1
390	163782	33.11001	1
390	164037	33.11501	0
390	165055	33.130596032382	1
390	165205	33.135596032382	0
390	168005	33.181438046746	2
390	168343	33.186438046746	0
390	179147	36.10501	1
390	179148	36.11001	0
390	179725	36.115948019478	1
390	179867	36.120948019478	0
390	184031	36.215796032381	1
390	184167	36.220796032381	0
390	184871	36.230134046746	2
390	185206	36.235134046746	0
390	197540	39.10501	1
390	197734	39.11001	1
390	198118	39.11501	0
390	202699	42.10501	1
390	202700	42.11001	0
390	203277	42.116268019479	1
390	203415	42.121268019479	0
390	205003	42.147124032382	1
390	205408	42.152124032382	0
390	206258	42.162742046746	2
390	206669	42.167742046746	0
390	218279	45.10501	1
390	218280	45.11001	0
390	218857	45.115948019478	1
390	219003	45.120948019478	0
390	223170	45.210676032381	1
390	223306	45.215676032381	0
390	223876	45.225014046746	2
390	224018	45.230014046746	0
390	237045	48.10501	1
390	237046	48.11001	0
390	237623	48.116268019479	1
390	237894	48.121268019479	0
390	238645	48.131236032382	1
390	238787	48.136236032382	0
390	240539	48.162422046747	2
390	240993	48.167422046747	0
390	255729	51.10501	1
390	255730	51.11001	0
390	256307	51.115948019478	1
390	256449	51.120948019478	0
390	260617	51.240116032381	1
390	260621	51.245116032381	0
390	262981	51.293910046746	2
390	263323	51.298910046746	0
390	276064	54.10501	1
390	276065	54.11001	0
390	276642	54.115948019478	1
390	276783	54.120948019478	0
390	278258	54.14616403238	1
390	278396	54.15116403238	0
390	279129	54.162422046745	2
390	279532	54.167422046745	0
390	291738	57.10501	1
390	291739	57.11001	0
390	292316	57.115628019479	1
390	292458	57.120628019479	0
390	296626	57.22571603238	1
390	296630	57.23071603238	0
390	297334	57.245814046745	2
390	297605	57.250814046745	0
427	44930	10.904405744173	0.804405744173
427	52090	11.063661744173	0.963661744173
427	65884	14.288924071428	0.188924071428
427	82757	18.324540071428	0.224540071428
427	85514	18.385532071428	0.285532071428
427	98534	21.254596071428	0.154596071428
427	105377	21.423156071428	0.323156071428
427	120678	24.359068071427	0.259068071427
427	122714	24.410892071427	0.310892071427
427	136723	27.238100071428	0.138100071428
427	140416	27.381540071428	0.281540071428
427	154782	30.293884071426	0.193884071426
427	158314	30.389964071426	0.289964071426
427	173754	33.294692071423	0.194692071423
427	174447	33.309300071422	0.209300071422
427	191459	36.367988071427	0.267988071427
427	192840	36.416404071427	0.316404071427
427	210863	42.249900071427	0.149900071427
427	212186	42.280716071427	0.180716071427
427	230964	45.363228071427	0.263228071427
427	232345	45.395964071427	0.295964071427
427	247584	48.381244071427	0.281244071427
427	251029	48.486924071426	0.386924071426
427	267919	51.409972071427	0.309972071427
427	271364	51.521412071426	0.421412071426
427	287038	54.307204071424	0.207204071424
427	302214	57.362828071425	0.262828071425
