file 293618 1348673280                                          
version 2
run General-0-20120926-16:15:16-3848
attr configname General
attr datetime 20120926-16:15:16
attr experiment General
attr inifile omnetpp.ini
attr iterationvars ""
attr iterationvars2 $repetition=0
attr measurement ""
attr network csma802154net
attr processid 3848
attr repetition 0
attr replication #0
attr resultdir results
attr runnumber 0
attr seedset 0

vector 386  csma802154net.dataCentricNetworkMan  RREQPacketFrequency  ETV
vector 387  csma802154net.dataCentricNetworkMan  DiscoveryPacketFrequency  ETV
vector 388  csma802154net.dataCentricNetworkMan  RegisterPacketFrequency  ETV
vector 389  csma802154net.dataCentricNetworkMan  RReplyPacketFrequency  ETV
vector 390  csma802154net.dataCentricNetworkMan  AODVDataPacketFrequency  ETV
vector 392  csma802154net.fixhost[1].udpApp  "End-to-end delay"  ETV
vector 383  csma802154net.dataCentricNetworkMan  dataPacketE2EDelay  ETV
vector 394  csma802154net.fixhost[3].udpApp  "End-to-end delay"  ETV
vector 401  csma802154net.fixhost[10].udpApp  "End-to-end delay"  ETV
vector 403  csma802154net.fixhost[12].udpApp  "End-to-end delay"  ETV
vector 408  csma802154net.fixhost[17].udpApp  "End-to-end delay"  ETV
vector 410  csma802154net.fixhost[19].udpApp  "End-to-end delay"  ETV
vector 411  csma802154net.fixhost[20].udpApp  "End-to-end delay"  ETV
vector 400  csma802154net.fixhost[9].udpApp  "End-to-end delay"  ETV
383	1415 658 990309 1660780 21.84528449107 34.034148903422 15 1.84528449107 14.034148903422 96.58551617204 770.42412295038
386	2073 58914 1135 1668030 2.005 34.17023888509 1943 0 235 44339 3158071
387	60987 57993 1135 1668030 2.005 34.17023888509 1943 0 0 0 0
388	118980 57993 1135 1668030 2.005 34.17023888509 1943 0 1 12 12
389	176973 57993 1135 1668030 2.005 34.17023888509 1943 0 2 80 110
390	234966 57994 1135 1668030 2.005 34.17023888509 1943 0 18 144 482
392	292960 85 990309 1041219 21.84528449107 22.683628491066 2 1.84528449107 2.683628491066 4.528912982136 10.606936731045
394	293045 88 1047312 1126533 22.781900484756 23.923796484752 2 2.781900484756 3.923796484752 6.705696969508 23.135149160838
400	293133 45 1660780 1660780 34.034148903422 34.034148903422 1 14.034148903422 14.034148903422 14.034148903422 196.95733544342
401	293178 88 1131968 1166678 24.049796482748 24.581188482743 2 4.049796482748 4.581188482743 8.630984965491 37.388139466095
403	293266 88 1225369 1271347 25.545388497616 26.343476523247 2 5.545388497616 6.343476523247 11.888865020863 70.991027990478
408	293354 88 1326996 1335388 27.855692556218 28.092108556216 2 7.855692556218 8.092108556216 15.947801112434 127.1941264234
410	293442 88 1343569 1351855 28.274764557692 28.456460557691 2 8.274764557692 8.456460557691 16.731225115383 139.98345364902
411	293530 88 1368956 1381443 28.919036551402 29.198844551401 2 8.919036551402 9.198844551401 18.117881102803 164.16795408608
