version 2
run General-0-20120903-12:38:49-3808
attr configname General
attr datetime 20120903-12:38:49
attr experiment General
attr inifile omnetpp.ini
attr iterationvars ""
attr iterationvars2 $repetition=0
attr measurement ""
attr network csma802154net
attr processid 3808
attr repetition 0
attr replication #0
attr resultdir results
attr runnumber 0
attr seedset 0

vector 386  csma802154net.dataCentricNetworkMan  RREQPacketFrequency  ETV
vector 387  csma802154net.dataCentricNetworkMan  DiscoveryPacketFrequency  ETV
vector 388  csma802154net.dataCentricNetworkMan  RegisterPacketFrequency  ETV
vector 425  csma802154net.fixhost[36].udpApp  "End-to-end delay"  ETV
vector 383  csma802154net.dataCentricNetworkMan  dataPacketE2EDelay  ETV
383	119281	3.347989683148	0.247989683148
383	120599	3.37593369844	0.27593369844
383	139030	7.183620078141	0.083620078141
383	142070	7.334612093433	0.234612093433
383	228451	14.994608590766	3.894608590766
383	229381	15.008936627522	3.908936627522
383	243900	17.168900079242	0.068900079242
383	245224	17.249516094535	0.149516094535
383	265035	20.168260079243	0.068260079243
383	266711	20.201732056655	0.101732056655
383	286146	23.175300079243	0.075300079243
383	288140	23.241996094534	0.141996094534
383	306697	26.181060079242	0.081060079242
383	308609	26.260396094533	0.160396094533
383	328469	29.196028094532	0.096028094532
383	329149	29.213876131288	0.113876131288
383	348360	32.17210007924	0.07210007924
383	349810	32.253996094532	0.153996094532
383	370041	35.197164079239	0.097164079239
383	393833	38.297956079243	0.197956079243
383	395153	38.336068094535	0.236068094535
383	434566	41.678108799026	0.578108799026
383	435246	41.694356835782	0.594356835782
383	451427	44.174660078363	0.074660078363
383	452751	44.254956093654	0.154956093654
383	474537	47.189628093655	0.089628093655
383	475217	47.207156130411	0.107156130411
386	1142	1.005	0
386	1143	1.01	0
386	5660	1.015948003907	0
386	8707	1.020948003907	0
386	9499	1.025948003907	0
386	11014	1.033472025	0
386	12569	1.038472025	1
386	12794	1.043472025	0
386	14852	1.050360027895	0
386	16821	1.055360027895	0
386	18410	1.067564035634	0
386	19158	1.072564035634	0
386	21697	1.094048041334	0
386	22262	1.099048041334	0
386	22553	1.104048041334	0
386	24192	1.111968048932	12
386	25037	1.116968048932	0
386	26745	1.138246502097	2
386	27586	1.143246502097	0
386	29220	1.163311355417	15
386	30159	1.168311355417	0
386	31475	1.182606756908	22
386	31658	1.187606756908	0
386	32978	1.200843496097	17
386	33349	1.205843496097	12
386	33657	1.210843496097	0
386	34787	1.218643408835	8
386	35244	1.223643408835	3
386	35490	1.228643408835	0
386	36654	1.235704536183	5
386	36748	1.240704536183	0
386	38333	1.251992694841	7
386	38569	1.256992694841	0
386	39576	1.268082566051	3
386	40071	1.273082566051	0
386	40608	1.284948827998	3
386	41168	1.289948827998	0
386	43079	1.323364310341	2
386	43104	1.328364310341	0
386	44294	1.34169979125	5
386	44339	1.34669979125	0
386	47402	1.394413390973	7
386	47462	1.399413390973	0
386	57739	2.005	0
386	57740	2.01	0
386	59955	2.01530800275	0
386	61538	2.02030800275	0
386	61889	2.02530800275	0
386	64225	2.03283202374	0
386	65711	2.03783202374	0
386	70287	2.058356041374	0
386	71833	2.063356041374	0
386	71921	2.068356041374	0
386	74679	2.083168046359	0
386	75535	2.088168046359	1
386	76025	2.093168046359	0
386	77298	2.100696050934	0
386	78166	2.105696050934	0
386	84094	2.152196054407	3
386	84252	2.157196054407	0
386	86392	2.188897901045	8
386	86463	2.193897901045	0
386	88878	2.239736738246	53
386	89220	2.244736738246	0
386	91079	2.257860100079	40
386	91462	2.262860100079	0
386	93535	2.27458457622	9
386	93694	2.27958457622	0
386	98241	2.325190898167	5
386	98276	2.330190898167	0
386	99547	2.343191139611	3
386	99597	2.348191139611	0
386	100681	2.359626883699	2
386	100982	2.364626883699	0
386	160716	11.114988018993	1
386	160854	11.119988018993	0
386	162158	11.138036021705	105
386	162906	11.143036021705	0
386	165841	11.155917208581	15
386	166120	11.160917208581	0
386	172247	11.218319066965	3
386	172448	11.223319066965	0
386	187303	13.914988018993	1
386	187444	13.919988018993	0
386	188914	13.939851737698	105
386	189642	13.944851737698	0
386	191872	13.959852995353	8
386	192076	13.964852995353	0
386	195492	13.991280386008	2
386	195814	13.996280386008	0
386	197339	14.007957292542	2
386	197665	14.012957292542	0
386	199424	14.043432421306	6
386	199992	14.048432421306	0
386	211027	14.485054807576	1
386	211169	14.490054807576	0
386	213276	14.524990827261	69
386	213744	14.529990827261	0
386	215698	14.543970210361	27
386	215961	14.548970210361	0
386	217313	14.560825053306	3
386	217572	14.565825053306	0
386	218619	14.577854751972	3
386	219176	14.582854751972	0
386	221405	14.611198354608	1
386	221967	14.616198354608	0
386	411461	41.256700018992	1
386	411484	41.261700018992	0
386	413702	41.299020087828	85
386	414284	41.304020087828	0
386	415772	41.317201009027	4
386	416361	41.322201009027	0
386	417685	41.342550324979	5
386	417877	41.347550324979	0
386	418589	41.353530279091	10
386	419214	41.358530279091	0
386	419647	41.364169716287	9
386	420061	41.369169716287	0
386	423663	41.410417378823	2
386	424236	41.415417378823	0
386	493544	50.114348018993	1
386	493688	50.119348018993	0
386	495306	50.138429233403	105
386	496065	50.143429233403	0
386	498661	50.156578889958	5
386	498813	50.161578889958	0
386	501332	50.173317770873	4
386	501412	50.178317770873	0
386	503433	50.189547156453	3
386	503509	50.194547156453	0
386	504834	50.206637297495	1
386	505010	50.211637297495	0
386	506356	50.224984742122	2
386	506365	50.229984742122	0
386	506715	50.237556897261	2
386	507380	50.242556897261	0
386	508816	50.263134891365	1
386	509094	50.268134891365	0
386	523640	52.914348018993	1
386	523781	52.919348018993	0
386	526040	52.93896752348	105
386	526749	52.94396752348	0
386	534941	52.992762836758	8
386	535051	52.997762836758	0
387	1142	1.005	1
387	1143	1.01	0
387	5660	1.015948003907	78
387	8707	1.020948003907	1
387	9499	1.025948003907	0
387	11014	1.033472025	1
387	12569	1.038472025	34
387	12794	1.043472025	0
387	14852	1.050360027895	3
387	16821	1.055360027895	0
387	18410	1.067564035634	3
387	19158	1.072564035634	0
387	21697	1.094048041334	1
387	22262	1.099048041334	1
387	22553	1.104048041334	0
387	24192	1.111968048932	3
387	25037	1.116968048932	0
387	26745	1.138246502097	0
387	27586	1.143246502097	0
387	29220	1.163311355417	0
387	30159	1.168311355417	0
387	31475	1.182606756908	0
387	31658	1.187606756908	0
387	32978	1.200843496097	0
387	33349	1.205843496097	0
387	33657	1.210843496097	0
387	34787	1.218643408835	0
387	35244	1.223643408835	0
387	35490	1.228643408835	0
387	36654	1.235704536183	0
387	36748	1.240704536183	0
387	38333	1.251992694841	0
387	38569	1.256992694841	0
387	39576	1.268082566051	0
387	40071	1.273082566051	0
387	40608	1.284948827998	0
387	41168	1.289948827998	0
387	43079	1.323364310341	0
387	43104	1.328364310341	0
387	44294	1.34169979125	0
387	44339	1.34669979125	0
387	47402	1.394413390973	0
387	47462	1.399413390973	0
387	57739	2.005	1
387	57740	2.01	0
387	59955	2.01530800275	38
387	61538	2.02030800275	2
387	61889	2.02530800275	0
387	64225	2.03283202374	51
387	65711	2.03783202374	0
387	70287	2.058356041374	5
387	71833	2.063356041374	12
387	71921	2.068356041374	0
387	74679	2.083168046359	12
387	75535	2.088168046359	3
387	76025	2.093168046359	0
387	77298	2.100696050934	2
387	78166	2.105696050934	0
387	84094	2.152196054407	0
387	84252	2.157196054407	0
387	86392	2.188897901045	0
387	86463	2.193897901045	0
387	88878	2.239736738246	0
387	89220	2.244736738246	0
387	91079	2.257860100079	0
387	91462	2.262860100079	0
387	93535	2.27458457622	0
387	93694	2.27958457622	0
387	98241	2.325190898167	0
387	98276	2.330190898167	0
387	99547	2.343191139611	0
387	99597	2.348191139611	0
387	100681	2.359626883699	0
387	100982	2.364626883699	0
387	160716	11.114988018993	0
387	160854	11.119988018993	0
387	162158	11.138036021705	0
387	162906	11.143036021705	0
387	165841	11.155917208581	0
387	166120	11.160917208581	0
387	172247	11.218319066965	0
387	172448	11.223319066965	0
387	187303	13.914988018993	0
387	187444	13.919988018993	0
387	188914	13.939851737698	0
387	189642	13.944851737698	0
387	191872	13.959852995353	0
387	192076	13.964852995353	0
387	195492	13.991280386008	0
387	195814	13.996280386008	0
387	197339	14.007957292542	0
387	197665	14.012957292542	0
387	199424	14.043432421306	0
387	199992	14.048432421306	0
387	211027	14.485054807576	0
387	211169	14.490054807576	0
387	213276	14.524990827261	0
387	213744	14.529990827261	0
387	215698	14.543970210361	0
387	215961	14.548970210361	0
387	217313	14.560825053306	0
387	217572	14.565825053306	0
387	218619	14.577854751972	0
387	219176	14.582854751972	0
387	221405	14.611198354608	0
387	221967	14.616198354608	0
387	411461	41.256700018992	0
387	411484	41.261700018992	0
387	413702	41.299020087828	0
387	414284	41.304020087828	0
387	415772	41.317201009027	0
387	416361	41.322201009027	0
387	417685	41.342550324979	0
387	417877	41.347550324979	0
387	418589	41.353530279091	0
387	419214	41.358530279091	0
387	419647	41.364169716287	0
387	420061	41.369169716287	0
387	423663	41.410417378823	0
387	424236	41.415417378823	0
387	493544	50.114348018993	0
387	493688	50.119348018993	0
387	495306	50.138429233403	0
387	496065	50.143429233403	0
387	498661	50.156578889958	0
387	498813	50.161578889958	0
387	501332	50.173317770873	0
387	501412	50.178317770873	0
387	503433	50.189547156453	0
387	503509	50.194547156453	0
387	504834	50.206637297495	0
387	505010	50.211637297495	0
387	506356	50.224984742122	0
387	506365	50.229984742122	0
387	506715	50.237556897261	0
387	507380	50.242556897261	0
387	508816	50.263134891365	0
387	509094	50.268134891365	0
387	523640	52.914348018993	0
387	523781	52.919348018993	0
387	526040	52.93896752348	0
387	526749	52.94396752348	0
387	534941	52.992762836758	0
387	535051	52.997762836758	0
388	1142	1.005	1
388	1143	1.01	0
388	5660	1.015948003907	0
388	8707	1.020948003907	0
388	9499	1.025948003907	0
388	11014	1.033472025	0
388	12569	1.038472025	0
388	12794	1.043472025	0
388	14852	1.050360027895	0
388	16821	1.055360027895	0
388	18410	1.067564035634	0
388	19158	1.072564035634	0
388	21697	1.094048041334	0
388	22262	1.099048041334	0
388	22553	1.104048041334	0
388	24192	1.111968048932	0
388	25037	1.116968048932	0
388	26745	1.138246502097	0
388	27586	1.143246502097	0
388	29220	1.163311355417	0
388	30159	1.168311355417	0
388	31475	1.182606756908	0
388	31658	1.187606756908	0
388	32978	1.200843496097	0
388	33349	1.205843496097	0
388	33657	1.210843496097	0
388	34787	1.218643408835	0
388	35244	1.223643408835	0
388	35490	1.228643408835	0
388	36654	1.235704536183	0
388	36748	1.240704536183	0
388	38333	1.251992694841	0
388	38569	1.256992694841	0
388	39576	1.268082566051	0
388	40071	1.273082566051	0
388	40608	1.284948827998	0
388	41168	1.289948827998	0
388	43079	1.323364310341	0
388	43104	1.328364310341	0
388	44294	1.34169979125	0
388	44339	1.34669979125	0
388	47402	1.394413390973	0
388	47462	1.399413390973	0
388	57739	2.005	0
388	57740	2.01	0
388	59955	2.01530800275	0
388	61538	2.02030800275	0
388	61889	2.02530800275	0
388	64225	2.03283202374	0
388	65711	2.03783202374	0
388	70287	2.058356041374	0
388	71833	2.063356041374	0
388	71921	2.068356041374	0
388	74679	2.083168046359	0
388	75535	2.088168046359	0
388	76025	2.093168046359	0
388	77298	2.100696050934	0
388	78166	2.105696050934	0
388	84094	2.152196054407	0
388	84252	2.157196054407	0
388	86392	2.188897901045	0
388	86463	2.193897901045	0
388	88878	2.239736738246	0
388	89220	2.244736738246	0
388	91079	2.257860100079	0
388	91462	2.262860100079	0
388	93535	2.27458457622	0
388	93694	2.27958457622	0
388	98241	2.325190898167	0
388	98276	2.330190898167	0
388	99547	2.343191139611	0
388	99597	2.348191139611	0
388	100681	2.359626883699	0
388	100982	2.364626883699	0
388	160716	11.114988018993	0
388	160854	11.119988018993	0
388	162158	11.138036021705	0
388	162906	11.143036021705	0
388	165841	11.155917208581	0
388	166120	11.160917208581	0
388	172247	11.218319066965	0
388	172448	11.223319066965	0
388	187303	13.914988018993	0
388	187444	13.919988018993	0
388	188914	13.939851737698	0
388	189642	13.944851737698	0
388	191872	13.959852995353	0
388	192076	13.964852995353	0
388	195492	13.991280386008	0
388	195814	13.996280386008	0
388	197339	14.007957292542	0
388	197665	14.012957292542	0
388	199424	14.043432421306	0
388	199992	14.048432421306	0
388	211027	14.485054807576	0
388	211169	14.490054807576	0
388	213276	14.524990827261	0
388	213744	14.529990827261	0
388	215698	14.543970210361	0
388	215961	14.548970210361	0
388	217313	14.560825053306	0
388	217572	14.565825053306	0
388	218619	14.577854751972	0
388	219176	14.582854751972	0
388	221405	14.611198354608	0
388	221967	14.616198354608	0
388	411461	41.256700018992	0
388	411484	41.261700018992	0
388	413702	41.299020087828	0
388	414284	41.304020087828	0
388	415772	41.317201009027	0
388	416361	41.322201009027	0
388	417685	41.342550324979	0
388	417877	41.347550324979	0
388	418589	41.353530279091	0
388	419214	41.358530279091	0
388	419647	41.364169716287	0
388	420061	41.369169716287	0
388	423663	41.410417378823	0
388	424236	41.415417378823	0
388	493544	50.114348018993	0
388	493688	50.119348018993	0
388	495306	50.138429233403	0
388	496065	50.143429233403	0
388	498661	50.156578889958	0
388	498813	50.161578889958	0
388	501332	50.173317770873	0
388	501412	50.178317770873	0
388	503433	50.189547156453	0
388	503509	50.194547156453	0
388	504834	50.206637297495	0
388	505010	50.211637297495	0
388	506356	50.224984742122	0
388	506365	50.229984742122	0
388	506715	50.237556897261	0
388	507380	50.242556897261	0
388	508816	50.263134891365	0
388	509094	50.268134891365	0
388	523640	52.914348018993	0
388	523781	52.919348018993	0
388	526040	52.93896752348	0
388	526749	52.94396752348	0
388	534941	52.992762836758	0
388	535051	52.997762836758	0
425	119281	3.347989683148	0.247989683148
425	120599	3.37593369844	0.27593369844
425	139030	7.183620078141	0.083620078141
425	142070	7.334612093433	0.234612093433
425	228451	14.994608590766	3.894608590766
425	229381	15.008936627522	3.908936627522
425	243900	17.168900079242	0.068900079242
425	245224	17.249516094535	0.149516094535
425	265035	20.168260079243	0.068260079243
425	266711	20.201732056655	0.101732056655
425	286146	23.175300079243	0.075300079243
425	288140	23.241996094534	0.141996094534
425	306697	26.181060079242	0.081060079242
425	308609	26.260396094533	0.160396094533
425	328469	29.196028094532	0.096028094532
425	329149	29.213876131288	0.113876131288
425	348360	32.17210007924	0.07210007924
425	349810	32.253996094532	0.153996094532
425	370041	35.197164079239	0.097164079239
425	393833	38.297956079243	0.197956079243
425	395153	38.336068094535	0.236068094535
425	434566	41.678108799026	0.578108799026
425	435246	41.694356835782	0.594356835782
425	451427	44.174660078363	0.074660078363
425	452751	44.254956093654	0.154956093654
425	474537	47.189628093655	0.089628093655
425	475217	47.207156130411	0.107156130411
