version 2
run General-0-20120904-18:04:33-464
attr configname General
attr datetime 20120904-18:04:33
attr experiment General
attr inifile omnetpp.ini
attr iterationvars ""
attr iterationvars2 $repetition=0
attr measurement ""
attr network csma802154net
attr processid 464
attr repetition 0
attr replication #0
attr resultdir results
attr runnumber 0
attr seedset 0

vector 386  csma802154net.dataCentricNetworkMan  RREQPacketFrequency  ETV
vector 387  csma802154net.dataCentricNetworkMan  DiscoveryPacketFrequency  ETV
vector 388  csma802154net.dataCentricNetworkMan  RegisterPacketFrequency  ETV
vector 425  csma802154net.fixhost[36].udpApp  "End-to-end delay"  ETV
vector 383  csma802154net.dataCentricNetworkMan  dataPacketE2EDelay  ETV
383	187684	3.848266090412	0.748266090412
383	189724	3.892706120291	0.792706120291
383	199482	7.284556133956	0.184556133956
383	202852	7.390876144952	0.290876144952
383	213301	11.33938014495	0.23938014495
383	215443	11.390188174829	0.290188174829
383	227555	14.355132144953	0.255132144953
383	229597	14.407860174833	0.307860174833
383	240092	17.336284144949	0.236284144949
383	242433	17.442892193299	0.342892193299
383	250912	20.260948132137	0.160948132137
383	254702	20.340284133957	0.240284133957
383	266702	23.295684144952	0.195684144952
383	270070	23.389668166356	0.289668166356
383	279888	26.322100144954	0.222100144954
383	281934	26.371484174833	0.271484174833
383	291331	29.293764144952	0.193764144952
383	294045	29.376940166355	0.276940166355
383	302869	32.325636132135	0.225636132135
383	306657	32.405612133954	0.305612133954
383	315400	35.284236133956	0.184236133956
383	318760	35.379572144952	0.279572144952
383	327014	38.263508132139	0.163508132139
383	330806	38.343804133958	0.243804133958
383	339379	41.263188126022	0.163188126022
383	343015	41.396636133955	0.296636133955
383	351642	44.279756133957	0.179756133957
383	354837	44.344628197961	0.244628197961
383	364352	47.344764133957	0.244764133957
383	367252	47.407372144952	0.307372144952
383	375869	50.275596133958	0.175596133958
383	379064	50.342708197961	0.242708197961
386	1142	1.005	0
386	1143	1.01	0
386	5660	1.015948003907	0
386	8707	1.020948003907	0
386	9499	1.025948003907	0
386	11014	1.033472025	0
386	12569	1.038472025	1
386	12794	1.043472025	0
386	14587	1.050360027895	0
386	16511	1.055360027895	0
386	16736	1.060360027895	0
386	19644	1.07620003878	0
386	20107	1.08120003878	0
386	31569	1.171084043397	3
386	32548	1.176084043397	0
386	33587	1.192161285716	9
386	34750	1.197161285716	0
386	36655	1.215631459172	2
386	36695	1.220631459172	0
386	37635	1.232907011601	27
386	39378	1.237907011601	0
386	40672	1.257994376558	1
386	41052	1.262994376558	0
386	41592	1.275280004356	6
386	41976	1.280280004356	26
386	42276	1.285280004356	0
386	43118	1.292178199831	18
386	44145	1.297178199831	14
386	44715	1.302178199831	0
386	46493	1.318436111412	3
386	46602	1.323436111412	0
386	48237	1.334723103293	7
386	48362	1.339723103293	0
386	49831	1.3546674421	6
386	49941	1.3596674421	0
386	54039	1.404205192674	1
386	54116	1.409205192674	0
386	78422	2.005	0
386	78557	2.01	0
386	81050	2.015948002749	0
386	82698	2.020948002749	0
386	83476	2.025948002749	0
386	84599	2.033792024816	0
386	86213	2.038792024816	0
386	86546	2.043792024816	0
386	87874	2.050036047239	0
386	89126	2.055036047239	0
386	89329	2.060036047239	0
386	90943	2.066284037017	0
386	92091	2.071284037017	0
386	92581	2.076284037017	0
386	94383	2.083168051221	0
386	95483	2.088168051221	1
386	96091	2.093168051221	0
386	97560	2.101156059518	0
386	98350	2.106156059518	0
386	99246	2.111156059518	0
386	126552	2.35712807046	1
386	126695	2.36212807046	0
386	127434	2.380404722796	35
386	129362	2.385404722796	0
386	131857	2.422201989445	16
386	132753	2.427201989445	30
386	133032	2.432201989445	0
386	136328	2.460284478365	7
386	136399	2.465284478365	0
386	137707	2.480038493559	17
386	138012	2.485038493559	0
386	139308	2.496435190094	5
386	139596	2.501435190094	0
386	141031	2.513461028169	1
386	141099	2.518461028169	0
386	142774	2.530608152106	10
386	142892	2.535608152106	0
386	147234	2.582801620733	1
386	147484	2.587801620733	0
387	1142	1.005	1
387	1143	1.01	0
387	5660	1.015948003907	78
387	8707	1.020948003907	1
387	9499	1.025948003907	0
387	11014	1.033472025	1
387	12569	1.038472025	34
387	12794	1.043472025	0
387	14587	1.050360027895	3
387	16511	1.055360027895	4
387	16736	1.060360027895	0
387	19644	1.07620003878	4
387	20107	1.08120003878	0
387	31569	1.171084043397	0
387	32548	1.176084043397	0
387	33587	1.192161285716	0
387	34750	1.197161285716	0
387	36655	1.215631459172	0
387	36695	1.220631459172	0
387	37635	1.232907011601	0
387	39378	1.237907011601	0
387	40672	1.257994376558	0
387	41052	1.262994376558	0
387	41592	1.275280004356	0
387	41976	1.280280004356	0
387	42276	1.285280004356	0
387	43118	1.292178199831	0
387	44145	1.297178199831	0
387	44715	1.302178199831	0
387	46493	1.318436111412	0
387	46602	1.323436111412	0
387	48237	1.334723103293	0
387	48362	1.339723103293	0
387	49831	1.3546674421	0
387	49941	1.3596674421	0
387	54039	1.404205192674	0
387	54116	1.409205192674	0
387	78422	2.005	1
387	78557	2.01	0
387	81050	2.015948002749	37
387	82698	2.020948002749	2
387	83476	2.025948002749	0
387	84599	2.033792024816	16
387	86213	2.038792024816	14
387	86546	2.043792024816	0
387	87874	2.050036047239	4
387	89126	2.055036047239	3
387	89329	2.060036047239	0
387	90943	2.066284037017	26
387	92091	2.071284037017	5
387	92581	2.076284037017	0
387	94383	2.083168051221	8
387	95483	2.088168051221	2
387	96091	2.093168051221	0
387	97560	2.101156059518	3
387	98350	2.106156059518	5
387	99246	2.111156059518	0
387	126552	2.35712807046	0
387	126695	2.36212807046	0
387	127434	2.380404722796	0
387	129362	2.385404722796	0
387	131857	2.422201989445	0
387	132753	2.427201989445	0
387	133032	2.432201989445	0
387	136328	2.460284478365	0
387	136399	2.465284478365	0
387	137707	2.480038493559	0
387	138012	2.485038493559	0
387	139308	2.496435190094	0
387	139596	2.501435190094	0
387	141031	2.513461028169	0
387	141099	2.518461028169	0
387	142774	2.530608152106	0
387	142892	2.535608152106	0
387	147234	2.582801620733	0
387	147484	2.587801620733	0
388	1142	1.005	1
388	1143	1.01	0
388	5660	1.015948003907	0
388	8707	1.020948003907	0
388	9499	1.025948003907	0
388	11014	1.033472025	0
388	12569	1.038472025	0
388	12794	1.043472025	0
388	14587	1.050360027895	0
388	16511	1.055360027895	0
388	16736	1.060360027895	0
388	19644	1.07620003878	0
388	20107	1.08120003878	0
388	31569	1.171084043397	0
388	32548	1.176084043397	0
388	33587	1.192161285716	0
388	34750	1.197161285716	0
388	36655	1.215631459172	0
388	36695	1.220631459172	0
388	37635	1.232907011601	0
388	39378	1.237907011601	0
388	40672	1.257994376558	0
388	41052	1.262994376558	0
388	41592	1.275280004356	0
388	41976	1.280280004356	0
388	42276	1.285280004356	0
388	43118	1.292178199831	0
388	44145	1.297178199831	0
388	44715	1.302178199831	0
388	46493	1.318436111412	0
388	46602	1.323436111412	0
388	48237	1.334723103293	0
388	48362	1.339723103293	0
388	49831	1.3546674421	0
388	49941	1.3596674421	0
388	54039	1.404205192674	0
388	54116	1.409205192674	0
388	78422	2.005	0
388	78557	2.01	0
388	81050	2.015948002749	0
388	82698	2.020948002749	0
388	83476	2.025948002749	0
388	84599	2.033792024816	0
388	86213	2.038792024816	0
388	86546	2.043792024816	0
388	87874	2.050036047239	0
388	89126	2.055036047239	0
388	89329	2.060036047239	0
388	90943	2.066284037017	0
388	92091	2.071284037017	0
388	92581	2.076284037017	0
388	94383	2.083168051221	0
388	95483	2.088168051221	0
388	96091	2.093168051221	0
388	97560	2.101156059518	0
388	98350	2.106156059518	0
388	99246	2.111156059518	0
388	126552	2.35712807046	0
388	126695	2.36212807046	0
388	127434	2.380404722796	0
388	129362	2.385404722796	0
388	131857	2.422201989445	0
388	132753	2.427201989445	0
388	133032	2.432201989445	0
388	136328	2.460284478365	0
388	136399	2.465284478365	0
388	137707	2.480038493559	0
388	138012	2.485038493559	0
388	139308	2.496435190094	0
388	139596	2.501435190094	0
388	141031	2.513461028169	0
388	141099	2.518461028169	0
388	142774	2.530608152106	0
388	142892	2.535608152106	0
388	147234	2.582801620733	0
388	147484	2.587801620733	0
425	187684	3.848266090412	0.748266090412
425	189724	3.892706120291	0.792706120291
425	199482	7.284556133956	0.184556133956
425	202852	7.390876144952	0.290876144952
425	213301	11.33938014495	0.23938014495
425	215443	11.390188174829	0.290188174829
425	227555	14.355132144953	0.255132144953
425	229597	14.407860174833	0.307860174833
425	240092	17.336284144949	0.236284144949
425	242433	17.442892193299	0.342892193299
425	250912	20.260948132137	0.160948132137
425	254702	20.340284133957	0.240284133957
425	266702	23.295684144952	0.195684144952
425	270070	23.389668166356	0.289668166356
425	279888	26.322100144954	0.222100144954
425	281934	26.371484174833	0.271484174833
425	291331	29.293764144952	0.193764144952
425	294045	29.376940166355	0.276940166355
425	302869	32.325636132135	0.225636132135
425	306657	32.405612133954	0.305612133954
425	315400	35.284236133956	0.184236133956
425	318760	35.379572144952	0.279572144952
425	327014	38.263508132139	0.163508132139
425	330806	38.343804133958	0.243804133958
425	339379	41.263188126022	0.163188126022
425	343015	41.396636133955	0.296636133955
425	351642	44.279756133957	0.179756133957
425	354837	44.344628197961	0.244628197961
425	364352	47.344764133957	0.244764133957
425	367252	47.407372144952	0.307372144952
425	375869	50.275596133958	0.175596133958
425	379064	50.342708197961	0.242708197961
