version 2
run General-0-20120926-16:15:16-3848
attr configname General
attr datetime 20120926-16:15:16
attr experiment General
attr inifile omnetpp.ini
attr iterationvars ""
attr iterationvars2 $repetition=0
attr measurement ""
attr network csma802154net
attr processid 3848
attr repetition 0
attr replication #0
attr resultdir results
attr runnumber 0
attr seedset 0

vector 386  csma802154net.dataCentricNetworkMan  RREQPacketFrequency  ETV
vector 387  csma802154net.dataCentricNetworkMan  DiscoveryPacketFrequency  ETV
vector 388  csma802154net.dataCentricNetworkMan  RegisterPacketFrequency  ETV
vector 389  csma802154net.dataCentricNetworkMan  RReplyPacketFrequency  ETV
vector 390  csma802154net.dataCentricNetworkMan  AODVDataPacketFrequency  ETV
vector 392  csma802154net.fixhost[1].udpApp  "End-to-end delay"  ETV
vector 383  csma802154net.dataCentricNetworkMan  dataPacketE2EDelay  ETV
vector 394  csma802154net.fixhost[3].udpApp  "End-to-end delay"  ETV
vector 401  csma802154net.fixhost[10].udpApp  "End-to-end delay"  ETV
vector 403  csma802154net.fixhost[12].udpApp  "End-to-end delay"  ETV
vector 408  csma802154net.fixhost[17].udpApp  "End-to-end delay"  ETV
vector 410  csma802154net.fixhost[19].udpApp  "End-to-end delay"  ETV
vector 411  csma802154net.fixhost[20].udpApp  "End-to-end delay"  ETV
vector 400  csma802154net.fixhost[9].udpApp  "End-to-end delay"  ETV
383	990309	21.84528449107	1.84528449107
383	1041219	22.683628491066	2.683628491066
383	1047312	22.781900484756	2.781900484756
383	1126533	23.923796484752	3.923796484752
383	1131968	24.049796482748	4.049796482748
383	1166678	24.581188482743	4.581188482743
383	1225369	25.545388497616	5.545388497616
383	1271347	26.343476523247	6.343476523247
383	1326996	27.855692556218	7.855692556218
383	1335388	28.092108556216	8.092108556216
383	1343569	28.274764557692	8.274764557692
383	1351855	28.456460557691	8.456460557691
383	1368956	28.919036551402	8.919036551402
383	1381443	29.198844551401	9.198844551401
383	1660780	34.034148903422	14.034148903422
386	1135	2.005	1
386	1276	2.01	0
386	3070	2.030586446663	235
386	3870	2.035586446663	0
386	6062	2.048975016504	17
386	6213	2.053975016504	0
386	8049	2.06641544363	14
386	8105	2.07141544363	0
386	9453	2.08357030409	16
386	9529	2.08857030409	0
386	10786	2.100610711107	42
386	10840	2.105610711107	0
386	12319	2.117307838678	44
386	12370	2.122307838678	0
386	13698	2.133884332253	20
386	13725	2.138884332253	0
386	14815	2.152138176387	18
386	14873	2.157138176387	0
386	15862	2.169236880296	30
386	16050	2.174236880296	0
386	16815	2.185857428351	39
386	17050	2.190857428351	14
386	17340	2.195857428351	0
386	17875	2.202756164703	32
386	17923	2.207756164703	0
386	18534	2.212887386361	3
386	19152	2.217887386361	28
386	19203	2.222887386361	0
386	19934	2.232227573044	20
386	20387	2.237227573044	23
386	20568	2.242227573044	0
386	21161	2.249833166802	21
386	21624	2.254833166802	25
386	21806	2.259833166802	0
386	22404	2.266374213479	33
386	22434	2.271374213479	0
386	23367	2.278597291605	65
386	23393	2.283597291605	0
386	24232	2.295764804002	46
386	24256	2.300764804002	0
386	24596	2.306083273595	28
386	25222	2.311083273595	63
386	25505	2.316083273595	0
386	26263	2.327926491471	54
386	26674	2.332926491471	0
386	27711	2.349872548392	51
386	27724	2.354872548392	0
386	28356	2.367672420971	31
386	28512	2.372672420971	0
386	29211	2.384770496518	70
386	29350	2.389770496518	0
386	30192	2.40594342697	115
386	30193	2.41094342697	0
386	30785	2.421021881579	0
386	30926	2.426021881579	0
386	53278	3.005	1
386	53676	3.01	0
386	55455	3.02913928336	187
386	56107	3.03413928336	0
386	58490	3.04829964704	15
386	58609	3.05329964704	0
386	60389	3.065221763888	21
386	60483	3.070221763888	0
386	61674	3.082475263174	29
386	61770	3.087475263174	0
386	63024	3.099004607222	78
386	63247	3.104004607222	0
386	63946	3.111364651354	33
386	64135	3.116364651354	0
386	64521	3.122525751849	8
386	64587	3.127525751849	0
386	65262	3.132951222818	60
386	65650	3.137951222818	11
386	65699	3.142951222818	0
386	66299	3.150167263644	43
386	67014	3.155167263644	28
386	67080	3.160167263644	0
386	67411	3.167000746694	17
386	68331	3.172000746694	28
386	68361	3.177000746694	0
386	69381	3.190472393973	95
386	69428	3.195472393973	0
386	70295	3.207147597912	60
386	70459	3.212147597912	0
386	70818	3.221724034006	7
386	71446	3.226724034006	22
386	71684	3.231724034006	9
386	71850	3.236724034006	0
386	72779	3.244988904007	64
386	73005	3.249988904007	13
386	73050	3.254988904007	0
386	73869	3.261532518963	7
386	73927	3.266532518963	0
386	74858	3.279258768631	87
386	74881	3.284258768631	0
386	75954	3.297117460626	69
386	76132	3.302117460626	6
386	76164	3.307117460626	0
386	77071	3.31454474554	32
386	77104	3.31954474554	0
386	78032	3.331136450464	85
386	78176	3.336136450464	0
386	78788	3.347752044928	52
386	79253	3.352752044928	33
386	79266	3.357752044928	0
386	79599	3.364113048972	32
386	80300	3.369113048972	30
386	80308	3.374113048972	0
386	81319	3.387282106509	49
386	81324	3.392282106509	0
386	82270	3.405309942178	73
386	82287	3.410309942178	0
386	83046	3.419461918875	58
386	83276	3.424461918875	0
386	84631	3.448736198084	23
386	84856	3.453736198084	0
386	86939	3.487865906761	37
386	86940	3.492865906761	0
386	88596	3.522097232903	19
386	88957	3.527097232903	0
386	91023	3.568295567535	23
386	91380	3.573295567535	0
386	106186	4.005	1
386	106187	4.01	0
386	107521	4.024901501422	173
386	108231	4.029901501422	0
386	110109	4.043394066947	53
386	110425	4.048394066947	0
386	111803	4.060433184689	12
386	112154	4.065433184689	22
386	112259	4.070433184689	0
386	113376	4.077307710308	9
386	113601	4.082307710308	0
386	114514	4.093641727407	39
386	115133	4.098641727407	0
386	116565	4.114362991715	60
386	116675	4.119362991715	0
386	117760	4.131187939547	40
386	117843	4.136187939547	0
386	119028	4.147607811101	65
386	119066	4.152607811101	0
386	120136	4.164215507519	42
386	120179	4.169215507519	0
386	121232	4.181786971669	42
386	121436	4.186786971669	8
386	121485	4.191786971669	0
386	122276	4.199161395461	56
386	122332	4.204161395461	0
386	123645	4.215468376772	116
386	123677	4.220468376772	0
386	125091	4.231931772606	5
386	125153	4.236931772606	0
386	126374	4.248697447652	34
386	126406	4.253697447652	0
386	127436	4.266444726431	35
386	127796	4.271444726431	0
386	128055	4.276677007218	14
386	128674	4.281677007218	14
386	129160	4.286677007218	0
386	130263	4.304354530539	85
386	130570	4.309354530539	0
386	131142	4.321457849214	39
386	131429	4.326457849214	26
386	131588	4.331457849214	0
386	131942	4.338802163895	30
386	132099	4.343802163895	0
386	132503	4.349642087833	25
386	132511	4.354642087833	0
386	133601	4.365986798475	54
386	133620	4.370986798475	0
386	134299	4.382429789808	51
386	134311	4.387429789808	0
386	135209	4.398885231109	91
386	135354	4.403885231109	0
386	135836	4.415886549039	64
386	136134	4.420886549039	0
386	136775	4.437279902458	0
386	137441	4.442279902458	37
386	137580	4.447279902458	0
386	138625	4.46857852421	50
386	138768	4.47357852421	0
386	158903	5.439027261938	0
386	158904	5.444027261938	0
386	167333	6.005	1
386	167334	6.01	0
386	168498	6.025146043385	137
386	168930	6.030146043385	0
386	170903	6.044578806086	66
386	171204	6.049578806086	0
386	173215	6.061258286661	1
386	173272	6.066258286661	0
386	174902	6.078042552706	14
386	175175	6.083042552706	0
386	176325	6.095282819715	32
386	176565	6.100282819715	5
386	176636	6.105282819715	0
386	177617	6.11424725634	39
386	177875	6.11924725634	0
386	178736	6.131314994744	48
386	179257	6.136314994744	11
386	179328	6.141314994744	0
386	179817	6.147623836961	20
386	180428	6.152623836961	26
386	180755	6.157623836961	0
386	181050	6.164231538557	13
386	181322	6.169231538557	16
386	181778	6.174231538557	5
386	182088	6.179231538557	0
386	182895	6.1942416682	45
386	183328	6.1992416682	0
386	184112	6.215869051806	3
386	184143	6.220869051806	0
386	185609	6.23370921908	116
386	185656	6.23870921908	0
386	186987	6.250270572771	21
386	187037	6.255270572771	0
386	188090	6.267202313798	46
386	188286	6.272202313798	7
386	188444	6.277202313798	0
386	189144	6.283541591113	71
386	189163	6.288541591113	0
386	189918	6.29665668526	58
386	190201	6.30165668526	0
386	191168	6.319065192927	23
386	191202	6.324065192927	0
386	192281	6.337489793151	62
386	192294	6.342489793151	0
386	193210	6.355067806449	62
386	193220	6.360067806449	0
386	193946	6.374848789361	45
386	194094	6.379848789361	0
386	194353	6.386907262854	18
386	194827	6.391907262854	29
386	194968	6.396907262854	0
386	195689	6.41291191156	55
386	196198	6.41791191156	21
386	196207	6.42291191156	0
386	196502	6.429928584679	21
386	197149	6.434928584679	48
386	197159	6.439928584679	0
386	197836	6.455097645708	44
386	197837	6.460097645708	0
386	198109	6.467128074133	26
386	198447	6.472128074133	0
386	198783	6.477128074133	0
386	200483	6.506520610678	49
386	200742	6.511520610678	0
386	217516	7.005	1
386	217733	7.01	0
386	219329	7.030768423689	147
386	219835	7.035768423689	0
386	221685	7.049066522105	14
386	221821	7.054066522105	0
386	223179	7.066427291793	32
386	223248	7.071427291793	0
386	224579	7.083432605763	98
386	224815	7.088432605763	0
386	226511	7.100413106987	74
386	226613	7.105413106987	0
386	228466	7.11702372245	3
386	228520	7.12202372245	0
386	229993	7.134009089262	20
386	230020	7.139009089262	0
386	231097	7.151503335774	49
386	231180	7.156503335774	0
386	232311	7.168728546455	67
386	232361	7.173728546455	0
386	233459	7.18632396116	64
386	233531	7.19132396116	0
386	234644	7.204732934646	50
386	234935	7.209732934646	0
386	235910	7.221805510296	28
386	236072	7.226805510296	0
386	236852	7.237342251735	48
386	237436	7.242342251735	4
386	237489	7.247342251735	0
386	238503	7.256276843009	45
386	238795	7.261276843009	0
386	239927	7.276308256772	64
386	239948	7.281308256772	0
386	240832	7.293070912419	72
386	240981	7.298070912419	0
386	241914	7.311356264932	58
386	242061	7.316356264932	0
386	242743	7.330118965419	32
386	243104	7.335118965419	13
386	243130	7.340118965419	0
386	243641	7.346547710216	37
386	244137	7.351547710216	41
386	244167	7.356547710216	0
386	244905	7.364597281615	54
386	245065	7.369597281615	0
386	245462	7.377919498259	21
386	245945	7.382919498259	60
386	246086	7.387919498259	0
386	246457	7.397643773007	13
386	246786	7.402643773007	29
386	246922	7.407643773007	0
386	247735	7.416550902525	25
386	247874	7.421550902525	0
386	248906	7.438736226983	92
386	248914	7.443736226983	0
386	249602	7.456134908976	80
386	249603	7.461134908976	0
386	251821	7.516525858373	29
386	252010	7.521525858373	0
386	252465	7.532627888789	37
386	252789	7.537627888789	0
386	257165	7.635561602091	0
386	257436	7.640561602091	0
386	273075	8.005	1
386	273276	8.01	0
386	274732	8.031696108662	120
386	275467	8.036696108662	0
386	276909	8.050009362693	18
386	277055	8.055009362693	0
386	278646	8.066488206198	2
386	278695	8.071488206198	0
386	280161	8.083187756988	41
386	280217	8.088187756988	0
386	281389	8.100376935145	86
386	281598	8.105376935145	0
386	283225	8.116977194312	90
386	283345	8.121977194312	0
386	284784	8.134051151365	54
386	284838	8.139051151365	0
386	286122	8.151385713868	62
386	286202	8.156385713868	0
386	287521	8.169438835015	70
386	287575	8.174438835015	0
386	288750	8.186170238255	51
386	288803	8.191170238255	0
386	290064	8.203868956806	60
386	290127	8.208868956806	0
386	291173	8.221137566062	39
386	291244	8.226137566062	0
386	292259	8.237448185892	45
386	292298	8.242448185892	0
386	293256	8.254182118016	27
386	293402	8.259182118016	0
386	294504	8.271078248473	52
386	295068	8.276078248473	0
386	296405	8.291446718765	16
386	296433	8.296446718765	0
386	297605	8.308608380987	80
386	297634	8.313608380987	0
386	298428	8.325854223482	24
386	298590	8.330854223482	0
386	299393	8.343138452357	57
386	299565	8.348138452357	0
386	300568	8.362618062685	74
386	300739	8.367618062685	0
386	301738	8.382862900732	42
386	301747	8.387862900732	0
386	302533	8.399177044974	61
386	302677	8.404177044974	0
386	303689	8.420614045015	57
386	303698	8.425614045015	0
386	304324	8.440262021497	23
386	304604	8.445262021497	0
386	305449	8.461869210264	78
386	305454	8.466869210264	0
386	306069	8.479655989871	95
386	306216	8.484655989871	0
386	306351	8.489655989871	0
386	307043	8.50452011242	45
386	307250	8.50952011242	0
386	308724	8.561359883847	104
386	308725	8.566359883847	0
386	309420	8.589633685747	0
386	309561	8.594633685747	0
386	310159	8.611401689187	0
386	310562	8.616401689187	0
386	311489	8.635984648128	45
386	311766	8.640984648128	0
386	312135	8.645984648128	0
386	345888	9.667387624192	0
386	345889	9.672387624192	0
386	357491	10.005	1
386	357821	10.01	0
386	359561	10.031825818621	78
386	359830	10.036825818621	0
386	361291	10.05024303588	70
386	361525	10.05524303588	0
386	363007	10.066938988123	8
386	363078	10.071938988123	0
386	364421	10.083336153484	38
386	364456	10.088336153484	0
386	365440	10.099699766104	44
386	365646	10.104699766104	0
386	366782	10.119634635953	18
386	366830	10.124634635953	0
386	367984	10.137246746342	51
386	368067	10.142246746342	0
386	369603	10.155353400563	54
386	369674	10.160353400563	0
386	371009	10.173309371018	39
386	371098	10.178309371018	0
386	372603	10.191550735063	79
386	372668	10.196550735063	0
386	374372	10.208670436114	12
386	374406	10.213670436114	0
386	375870	10.225940897261	18
386	375917	10.230940897261	0
386	377110	10.24323195763	51
386	377161	10.24823195763	0
386	378402	10.262157974179	58
386	378481	10.267157974179	0
386	379488	10.279206894376	34
386	379514	10.284206894376	0
386	380381	10.29668454516	38
386	380406	10.30168454516	0
386	381296	10.313495938129	81
386	381766	10.318495938129	0
386	382336	10.329982320922	24
386	383025	10.334982320922	3
386	383048	10.339982320922	0
386	384785	10.368687680705	73
386	384938	10.373687680705	0
386	385899	10.390347476066	30
386	385929	10.395347476066	0
386	386900	10.405567970219	40
386	386920	10.410567970219	0
386	387779	10.426003710469	47
386	387786	10.431003710469	0
386	388580	10.444185510866	28
386	388585	10.449185510866	0
386	389431	10.46202502747	74
386	389443	10.46702502747	0
386	390239	10.479518183912	102
386	390252	10.484518183912	0
386	390898	10.495766940332	71
386	390907	10.500766940332	0
386	391637	10.514631441226	117
386	391905	10.519631441226	0
386	392883	10.53539545639	80
386	392884	10.54039545639	0
386	393648	10.555376013586	60
386	393652	10.560376013586	0
386	394385	10.571885651808	120
386	394520	10.576885651808	0
386	395136	10.594878884997	96
386	395137	10.599878884997	0
386	395811	10.626391340414	80
386	395812	10.631391340414	0
386	396820	10.657061653649	120
386	396821	10.662061653649	0
386	397401	10.674969734091	0
386	397537	10.679969734091	0
386	398268	10.696097742841	0
386	398410	10.701097742841	0
386	398914	10.71106575159	0
386	399298	10.71606575159	0
386	408682	11.005	1
386	408934	11.01	0
386	410773	11.036188634554	188
386	411444	11.041188634554	0
386	414064	11.053963710452	47
386	414217	11.058963710452	0
386	416655	11.071783160141	27
386	416815	11.076783160141	0
386	418577	11.088413391323	38
386	418686	11.093413391323	0
386	420091	11.104937389844	16
386	420125	11.109937389844	0
386	421351	11.121584536266	57
386	421419	11.126584536266	0
386	422817	11.139147854394	34
386	422887	11.144147854394	0
386	424083	11.155496365726	16
386	424123	11.160496365726	0
386	425157	11.172579398264	80
386	425494	11.177579398264	0
386	426068	11.188451229099	19
386	426834	11.193451229099	10
386	427094	11.198451229099	0
386	427964	11.213230296241	9
386	428001	11.218230296241	0
386	428963	11.231506913017	27
386	429015	11.236506913017	0
386	429927	11.247899825742	51
386	429969	11.252899825742	0
386	431099	11.265486473355	90
386	431255	11.270486473355	0
386	432334	11.282971775904	60
386	432490	11.287971775904	0
386	433748	11.303115760317	65
386	433766	11.308115760317	0
386	434755	11.319824395771	42
386	434777	11.324824395771	0
386	435721	11.33654030345	26
386	435748	11.34154030345	0
386	436785	11.353110860737	56
386	436796	11.358110860737	0
386	437539	11.371806153201	49
386	437822	11.376806153201	0
386	438451	11.389076562409	23
386	438827	11.394076562409	19
386	438852	11.399076562409	0
386	439729	11.408732115315	86
386	439864	11.413732115315	0
386	440608	11.428216225941	85
386	440744	11.433216225941	0
386	441517	11.460496891486	24
386	441738	11.465496891486	0
386	442621	11.491777431424	0
386	442767	11.496777431424	0
386	442953	11.506594796422	8
386	443304	11.511594796422	0
386	444660	11.555576610638	25
386	444798	11.560576610638	0
386	447196	11.631801454612	0
386	447334	11.636801454612	0
386	450878	11.723099709986	0
386	451078	11.728099709986	0
386	463693	12.005	1
386	463699	12.01	0
386	465047	12.034608657912	82
386	465486	12.039608657912	0
386	467277	12.0531501747	146
386	467764	12.0581501747	0
386	470083	12.071316550754	3
386	470187	12.076316550754	0
386	472169	12.08822629711	5
386	472219	12.09322629711	0
386	473748	12.104964497686	18
386	473806	12.109964497686	0
386	475338	12.121772408641	26
386	475359	12.126772408641	0
386	476336	12.138391004125	30
386	476630	12.143391004125	0
386	477975	12.156608650648	73
386	478063	12.161608650648	0
386	479180	12.172940990934	53
386	479242	12.177940990934	0
386	480319	12.190221983716	48
386	480565	12.195221983716	16
386	480622	12.200221983716	0
386	481625	12.205673063017	33
386	481938	12.210673063017	0
386	482261	12.222333880136	12
386	483196	12.227333880136	66
386	483245	12.232333880136	0
386	484282	12.244604607171	70
386	484311	12.249604607171	0
386	485303	12.261370106739	58
386	485575	12.266370106739	0
386	486502	12.278172687824	28
386	486662	12.283172687824	0
386	487213	12.294551567031	40
386	487951	12.299551567031	34
386	487983	12.304551567031	0
386	489233	12.315576468399	40
386	489390	12.320576468399	0
386	490365	12.333108173998	57
386	490887	12.338108173998	0
386	492445	12.361881600858	57
386	492505	12.366881600858	0
386	493495	12.3798410808	73
386	493519	12.3848410808	0
386	494654	12.396443775288	48
386	494789	12.401443775288	0
386	495506	12.416449573697	8
386	496160	12.421449573697	0
386	496851	12.439203611069	6
386	496865	12.444203611069	0
386	497663	12.457748925433	104
386	498049	12.462748925433	0
386	499153	12.487150078106	56
386	499415	12.492150078106	0
386	499988	12.508992581173	8
386	499993	12.513992581173	0
386	500630	12.523969087691	0
386	500902	12.528969087691	0
386	501936	12.545097108134	0
386	502221	12.550097108134	0
386	502927	12.568963752916	13
386	502932	12.573963752916	0
386	520133	12.954961177926	0
386	520554	12.959961177926	0
386	522941	13.000745202601	0
386	523079	13.005745202601	0
386	529596	13.112441754129	114
386	530104	13.117441754129	0
386	543663	13.385201754127	114
386	544010	13.390201754127	0
386	545701	13.443393517544	10
386	546052	13.448393517544	0
386	548834	14.005	1
386	548835	14.01	0
386	550730	14.023585421677	184
386	551415	14.028585421677	0
386	554212	14.042532550504	22
386	554366	14.047532550504	0
386	556440	14.05947001518	16
386	556525	14.06447001518	0
386	557749	14.076259693353	12
386	557823	14.081259693353	0
386	559028	14.093002847522	76
386	559104	14.098002847522	0
386	560272	14.110021854999	40
386	560341	14.115021854999	0
386	561680	14.127297634972	69
386	561756	14.132297634972	0
386	563066	14.145153154589	58
386	563233	14.150153154589	0
386	564394	14.162003463212	37
386	564465	14.167003463212	0
386	565545	14.180000814781	67
386	565581	14.185000814781	0
386	566608	14.194244108567	27
386	566771	14.199244108567	0
386	567329	14.210532038502	16
386	567987	14.215532038502	37
386	568031	14.220532038502	0
386	568491	14.228492771815	19
386	568942	14.233492771815	19
386	569241	14.238492771815	0
386	570351	14.255416415212	49
386	570511	14.260416415212	0
386	571505	14.273044966072	63
386	571663	14.278044966072	0
386	572222	14.289447405697	29
386	572760	14.294447405697	49
386	572797	14.299447405697	0
386	573294	14.306656385005	34
386	573817	14.311656385005	47
386	573850	14.316656385005	0
386	575017	14.325224999679	84
386	575055	14.330224999679	0
386	576186	14.34474188312	12
386	576203	14.34974188312	0
386	577167	14.361368658749	29
386	577447	14.366368658749	0
386	578280	14.379709743707	74
386	578566	14.384709743707	0
386	579268	14.402401072076	66
386	579545	14.407401072076	0
386	580266	14.423704611148	79
386	580267	14.428704611148	0
386	581212	14.453313985144	40
386	581221	14.458313985144	0
386	581835	14.470868119828	0
386	581970	14.475868119828	0
386	582579	14.493114195393	67
386	582587	14.498114195393	0
386	590001	14.715707513804	0
386	590006	14.720707513804	0
386	591224	14.748004103769	0
386	591362	14.753004103769	0
386	591699	14.762771775693	0
386	592058	14.767771775693	0
386	602224	14.97414011506	0
386	602370	14.97914011506	0
386	603732	15.005	1
386	603862	15.01	0
386	605378	15.025897867999	140
386	605857	15.030897867999	0
386	607598	15.043950204429	19
386	607720	15.048950204429	0
386	609499	15.060411865238	17
386	609574	15.065411865238	0
386	611283	15.078190370846	6
386	611342	15.083190370846	0
386	612500	15.094742672683	11
386	612674	15.099742672683	0
386	613939	15.113984219735	72
386	614272	15.118984219735	8
386	614364	15.123984219735	0
386	615791	15.130191294927	19
386	615861	15.135191294927	0
386	617389	15.147156879905	33
386	617462	15.152156879905	0
386	618541	15.164304359046	22
386	618575	15.169304359046	0
386	619411	15.181696443751	21
386	619450	15.186696443751	0
386	619708	15.192881120264	16
386	620605	15.197881120264	94
386	620753	15.202881120264	0
386	620845	15.207881120264	0
386	622073	15.215878403848	87
386	622122	15.220878403848	0
386	623305	15.232545264222	51
386	623485	15.237545264222	0
386	624399	15.250862785261	9
386	624710	15.255862785261	2
386	624736	15.260862785261	0
386	625881	15.26927863725	47
386	625940	15.27427863725	0
386	626975	15.288914939689	35
386	627141	15.293914939689	0
386	627581	15.302939212633	7
386	628336	15.307939212633	10
386	628525	15.312939212633	0
386	629240	15.32508560843	6
386	629669	15.33008560843	0
386	630300	15.348096330645	20
386	630861	15.353096330645	28
386	630899	15.358096330645	0
386	631942	15.371094782904	88
386	631954	15.376094782904	0
386	633000	15.389778713071	84
386	633022	15.394778713071	0
386	633849	15.407011372089	68
386	633855	15.412011372089	0
386	635620	15.444223810066	56
386	635638	15.449223810066	0
386	635909	15.455106145487	24
386	636299	15.460106145487	45
386	636697	15.465106145487	0
386	637608	15.480835519031	30
386	637637	15.485835519031	0
386	638098	15.500245037511	23
386	638233	15.505245037511	0
386	639755	15.543359209505	95
386	640117	15.548359209505	0
386	649940	15.778100109894	84
386	649941	15.783100109894	0
386	653997	15.9086361176	114
386	654129	15.9136361176	0
386	654669	15.921588136202	0
386	654807	15.926588136202	0
386	656327	15.951484160877	0
386	656473	15.956484160877	0
386	658759	16.005	1
386	659088	16.01	0
386	661070	16.034225648839	18
386	661130	16.039225648839	0
386	662180	16.053262679728	109
386	662808	16.058262679728	0
386	664278	16.070145749356	50
386	664368	16.075145749356	0
386	665524	16.086369426046	33
386	665742	16.091369426046	0
386	666439	16.102753562846	25
386	666871	16.107753562846	23
386	667445	16.112753562846	0
386	668081	16.120213118269	38
386	668216	16.125213118269	0
386	669120	16.131871388082	47
386	669835	16.136871388082	31
386	669931	16.141871388082	0
386	670639	16.149017294382	12
386	671193	16.154017294382	6
386	671273	16.159017294382	0
386	672100	16.165782128485	11
386	672440	16.170782128485	21
386	672482	16.175782128485	0
386	673239	16.183035875928	3
386	673282	16.188035875928	0
386	674436	16.200967304627	97
386	674684	16.205967304627	0
386	675343	16.218616402093	39
386	676178	16.223616402093	30
386	676284	16.228616402093	0
386	677764	16.241214488883	32
386	677820	16.246214488883	0
386	679083	16.258513994535	27
386	679153	16.263513994535	0
386	680224	16.275218274844	17
386	680535	16.280218274844	0
386	681295	16.292238683865	7
386	681359	16.297238683865	0
386	682215	16.308802750413	2
386	682255	16.313802750413	0
386	683888	16.325545755164	69
386	683916	16.330545755164	0
386	685320	16.342184760778	5
386	685358	16.347184760778	0
386	686453	16.359579824052	63
386	686473	16.364579824052	0
386	686711	16.371806660189	11
386	687385	16.376806660189	39
386	687773	16.381806660189	0
386	689460	16.40939745885	21
386	689483	16.41439745885	0
386	690284	16.422591213862	34
386	690435	16.427591213862	0
386	691227	16.441073619829	90
386	691507	16.446073619829	0
386	692233	16.461786373355	71
386	692244	16.466786373355	0
386	693265	16.488650760059	117
386	693279	16.493650760059	0
386	693851	16.505486045869	85
386	694005	16.510486045869	0
386	694573	16.527038496176	47
386	694859	16.532038496176	29
386	694997	16.537038496176	0
386	695578	16.557642218987	88
386	695582	16.562642218987	0
386	697243	16.611026477644	104
386	697616	16.616026477644	0
386	704317	16.749028163374	74
386	704318	16.754028163374	0
386	704900	16.763304825261	0
386	705056	16.768304825261	0
386	706557	16.80501	1
386	706938	16.81001	0
386	708154	16.827433364139	104
386	708631	16.832433364139	0
386	710157	16.845647522577	64
386	710324	16.850647522577	0
386	711663	16.861918706277	3
386	711737	16.866918706277	0
386	712964	16.879160811332	25
386	712992	16.884160811332	0
386	714189	16.895881069457	54
386	714486	16.900881069457	0
386	715819	16.911794577451	67
386	716022	16.916794577451	0
386	717201	16.92990583337	40
386	717428	16.93490583337	0
386	718561	16.9469731752	53
386	718640	16.9519731752	0
386	719697	16.961327635808	23
386	719883	16.966327635808	0
386	721291	16.981201467397	41
386	721338	16.986201467397	0
386	722523	16.998383986708	45
386	723058	17.003383986708	0
386	723890	17.015855654365	52
386	724627	17.020855654365	0
386	726102	17.036756435444	25
386	726162	17.041756435444	0
386	727274	17.054111171633	26
386	727307	17.059111171633	0
386	728261	17.070692645102	56
386	728465	17.075692645102	0
386	729409	17.087652630268	87
386	729600	17.092652630268	0
386	730659	17.107823035021	69
386	730724	17.112823035021	0
386	731084	17.120104190391	8
386	731685	17.125104190391	29
386	731720	17.130104190391	0
386	732106	17.139347847234	37
386	732864	17.144347847234	36
386	733165	17.149347847234	0
386	734190	17.161354413948	44
386	734353	17.166354413948	0
386	735337	17.178740372663	76
386	735368	17.183740372663	0
386	736146	17.199054829163	47
386	736420	17.204054829163	0
386	737200	17.219971728564	29
386	737214	17.224971728564	0
386	737639	17.230823119418	30
386	737655	17.235823119418	0
386	738576	17.249022680677	91
386	738723	17.254022680677	0
386	739389	17.265526861507	72
386	739398	17.270526861507	0
386	740557	17.296742602854	81
386	740699	17.301742602854	0
386	741500	17.318208228662	94
386	741505	17.323208228662	0
386	742641	17.334776826307	116
386	742645	17.339776826307	0
386	743336	17.351017506233	17
386	743337	17.356017506233	0
386	743909	17.369041709771	87
386	743910	17.374041709771	0
386	744739	17.396890428022	13
386	744754	17.401890428022	0
386	745308	17.416538428022	84
386	745447	17.421538428022	0
386	746004	17.439760340888	0
386	746009	17.444760340888	0
386	755987	17.80501	1
386	756128	17.81001	0
386	757933	17.833848125115	72
386	758746	17.838848125115	0
386	760139	17.85196233316	18
386	760329	17.85696233316	0
386	761514	17.870368290575	143
386	762486	17.875368290575	0
386	764009	17.89173983051	6
386	764352	17.89673983051	22
386	764610	17.90173983051	0
386	765245	17.908374103339	24
386	765321	17.913374103339	0
386	766192	17.920223503846	75
386	766669	17.925223503846	0
386	768216	17.94011099665	33
386	768285	17.94511099665	0
386	769361	17.95898026357	5
386	769407	17.96398026357	0
386	770606	17.97404834849	38
386	770782	17.97904834849	0
386	771956	17.992332011826	38
386	772009	17.997332011826	0
386	773666	18.00886769637	61
386	773704	18.01386769637	0
386	775307	18.028737959304	54
386	775367	18.033737959304	0
386	777023	18.045626422341	29
386	777065	18.050626422341	0
386	778664	18.063047747717	20
386	778704	18.068047747717	0
386	779849	18.079703960979	11
386	779880	18.084703960979	0
386	780900	18.09714040054	43
386	780989	18.10214040054	0
386	782112	18.114605810275	56
386	782146	18.119605810275	0
386	783176	18.13091516407	69
386	783212	18.13591516407	0
386	784259	18.147387557453	87
386	784294	18.152387557453	0
386	785457	18.165620316836	67
386	785469	18.170620316836	0
386	786421	18.181136033575	38
386	786466	18.186136033575	0
386	787276	18.198836562551	66
386	787308	18.203836562551	0
386	788280	18.215475291821	75
386	788290	18.220475291821	0
386	789358	18.23086802227	68
386	789359	18.23586802227	0
386	790098	18.248753828828	55
386	790112	18.253753828828	0
386	790637	18.269039496865	39
386	791083	18.274039496865	34
386	791091	18.279039496865	0
386	791814	18.292961703055	114
386	791815	18.297961703055	0
386	792644	18.322651610674	106
386	792783	18.327651610674	0
386	793524	18.346371464738	88
386	793525	18.351371464738	0
386	794099	18.362336358357	0
386	794103	18.367336358357	0
386	794863	18.404384144809	98
386	794864	18.409384144809	0
386	795725	18.438221345418	84
386	795729	18.443221345418	0
386	804066	18.704488344327	87
386	804067	18.709488344327	0
386	804781	18.732160368818	0
386	804785	18.737160368818	0
386	805520	18.80501	1
386	805657	18.81001	0
386	807749	18.825786898294	232
386	808457	18.830786898294	0
386	810956	18.845219587379	3
386	811339	18.850219587379	0
386	814912	18.878712271104	22
386	814974	18.883712271104	0
386	816440	18.895640252462	17
386	816507	18.900640252462	0
386	817794	18.912455665699	11
386	817841	18.917455665699	0
386	819179	18.929967252274	46
386	819211	18.934967252274	0
386	820428	18.948233485722	28
386	820611	18.953233485722	0
386	821255	18.966302547735	28
386	821974	18.971302547735	45
386	822028	18.976302547735	0
386	822885	18.985656672881	38
386	823268	18.990656672881	12
386	823309	18.995656672881	0
386	824453	19.00512717453	48
386	824478	19.01012717453	0
386	825414	19.019057095299	87
386	825575	19.024057095299	0
386	826343	19.036287918172	83
386	826774	19.041287918172	0
386	828089	19.057832639908	76
386	828123	19.062832639908	0
386	829468	19.074609500605	64
386	829518	19.079609500605	0
386	831721	19.109136176296	49
386	831745	19.114136176296	0
386	832235	19.119929517265	0
386	832733	19.124929517265	36