file 275487 1353540091                                          
version 2
run AODVScenario_1f-68-20121121-15:03:05-1400
attr configname AODVScenario_1f
attr datetime 20121121-15:03:05
attr experiment AODVScenario_1f
attr inifile AODV.ini
attr iterationvars $numNodes=118
attr iterationvars2 "$numNodes=118, $repetition=0"
attr measurement $numNodes=118
attr network csma802154net
attr numNodes 118
attr processid 1400
attr repetition 0
attr replication #0
attr resultdir results
attr runnumber 68
attr seedset 68
vector 483  csma802154net.dataCentricNetworkMan  RREQPacketFrequency  ETV
483	7202 41844 1070 3359513 1.005 7273.079660148332 1453 0 149 3381 283551
vector 484  csma802154net.dataCentricNetworkMan  RERRPacketFrequency  ETV
484	49046 41785 1070 3359513 1.005 7273.079660148332 1453 0 0 0 0
vector 485  csma802154net.dataCentricNetworkMan  DiscoveryPacketFrequency  ETV
485	90831 41785 1070 3359513 1.005 7273.079660148332 1453 0 0 0 0
vector 486  csma802154net.dataCentricNetworkMan  RegisterPacketFrequency  ETV
486	132616 41785 1070 3359513 1.005 7273.079660148332 1453 0 1 12 12
vector 487  csma802154net.dataCentricNetworkMan  RReplyPacketFrequency  ETV
487	174401 41802 1070 3359513 1.005 7273.079660148332 1453 0 122 1882 95856
vector 488  csma802154net.dataCentricNetworkMan  AODVDataPacketFrequency  ETV
488	216203 41805 1070 3359513 1.005 7273.079660148332 1453 0 116 1518 77918
vector 495  csma802154net.dataCentricNetworkMan  pendingRegistrationVector  ETV
495	269659 503 59096 1330148 43.5 54.665236495743 21 0 4 55 171
vector 494  csma802154net.dataCentricNetworkMan  pendingRREQVector  ETV
494	268389 1270 59101 1300630 43.50001 54.535800328832 45 0 1 16 16
vector 492  csma802154net.dataCentricNetworkMan  PendingDataPacketsVector  ETV
492	258008 10381 1353572 3359240 70 7273.073460154534 338 0 3 325 533
vector 506  csma802154net.fixhost[10].udpApp  "End-to-end delay"  ETV
506	271921 595 1355143 3340536 70.021116050936 7270.017844050937 13 0.010876050937 0.039284050938 0.213492662186 0.0041636693175005
vector 480  csma802154net.dataCentricNetworkMan  dataPacketE2EDelay  ETV
480	1877 5325 1355143 3359240 70.021116050936 7273.073460154534 117 0.01087603633 0.097460154536 4.203990693103 0.19559988211764
vector 503  csma802154net.fixhost[7].udpApp  "End-to-end delay"  ETV
503	271344 577 1355736 3339946 70.028156036328 7270.01311603633 13 0.01087603633 0.028156036328 0.225292472283 0.0041239461774403
vector 511  csma802154net.fixhost[15].udpApp  "End-to-end delay"  ETV
511	273111 595 1359197 3344426 71.021676074533 7271.028324074532 13 0.018156074533 0.028324074532 0.293092968921 0.0066911517377477
vector 518  csma802154net.fixhost[22].udpApp  "End-to-end delay"  ETV
518	274892 595 1360355 3345139 71.050044100109 7271.051644100108 13 0.025084100109 0.051644100108 0.44118930141 0.016051831261434
vector 500  csma802154net.fixhost[4].udpApp  "End-to-end delay"  ETV
500	270162 595 1364735 3349210 72.027676108533 7272.026436080383 13 0.022276080383 0.033116108533 0.373405185727 0.010859311296373
vector 501  csma802154net.fixhost[5].udpApp  "End-to-end delay"  ETV
501	270757 587 1366209 3350370 72.05729212451 7272.054772097356 13 0.032444097356 0.083428097354 0.643149401391 0.034124863361534
vector 509  csma802154net.fixhost[13].udpApp  "End-to-end delay"  ETV
509	272516 595 1370767 3358051 73.029956087914 7273.061420087913 13 0.023876087914 0.091108087913 0.564845142873 0.029988804418691
vector 514  csma802154net.fixhost[18].udpApp  "End-to-end delay"  ETV
514	273706 591 1372117 3355052 73.039692119182 7273.032156119181 13 0.029276119181 0.09010811918 0.646277549356 0.036892909839835
vector 515  csma802154net.fixhost[19].udpApp  "End-to-end delay"  ETV
515	274297 595 1374503 3359240 73.067452154535 7273.073460154534 13 0.041036154535 0.097460154536 0.803246008956 0.052703394707087
