file 253555 1353540007                                          
version 2
run AODVScenario_1f-60-20121121-14:59:40-6460
attr configname AODVScenario_1f
attr datetime 20121121-14:59:40
attr experiment AODVScenario_1f
attr inifile AODV.ini
attr iterationvars $numNodes=110
attr iterationvars2 "$numNodes=110, $repetition=0"
attr measurement $numNodes=110
attr network csma802154net
attr numNodes 110
attr processid 6460
attr repetition 0
attr replication #0
attr resultdir results
attr runnumber 60
attr seedset 60
vector 451  csma802154net.dataCentricNetworkMan  RREQPacketFrequency  ETV
451	8548 37476 873 2816059 1.005 7273.05501 1307 0 134 2429 179107
vector 452  csma802154net.dataCentricNetworkMan  RERRPacketFrequency  ETV
452	46024 37429 873 2816059 1.005 7273.05501 1307 0 0 0 0
vector 453  csma802154net.dataCentricNetworkMan  DiscoveryPacketFrequency  ETV
453	83453 37429 873 2816059 1.005 7273.05501 1307 0 0 0 0
vector 454  csma802154net.dataCentricNetworkMan  RegisterPacketFrequency  ETV
454	120882 37429 873 2816059 1.005 7273.05501 1307 0 1 12 12
vector 455  csma802154net.dataCentricNetworkMan  RReplyPacketFrequency  ETV
455	158311 37441 873 2816059 1.005 7273.05501 1307 0 92 1505 59743
vector 456  csma802154net.dataCentricNetworkMan  AODVDataPacketFrequency  ETV
456	195752 37448 873 2816059 1.005 7273.05501 1307 0 92 1334 43582
vector 463  csma802154net.dataCentricNetworkMan  pendingRegistrationVector  ETV
463	246468 557 44551 911858 43.5 54.926837366947 23 1 2 34 56
vector 462  csma802154net.dataCentricNetworkMan  pendingRREQVector  ETV
462	245272 1196 44556 824986 43.50001 54.531199903287 43 0 1 14 14
vector 460  csma802154net.dataCentricNetworkMan  PendingDataPacketsVector  ETV
460	233200 12072 917589 2815805 70 7273.049252128892 390 0 3 455 871
vector 477  csma802154net.fixhost[13].udpApp  "End-to-end delay"  ETV
477	250585 594 919042 2795655 70.012156026815 7270.015036026816 13 0.012156026815 0.015996026815 0.177228348603 0.0024346874729594
vector 448  csma802154net.dataCentricNetworkMan  dataPacketE2EDelay  ETV
448	2018 6530 919042 2815805 70.012156026815 7273.049252128892 143 0.012156026815 0.099668145519 5.342433367291 0.2551106240207
vector 488  csma802154net.fixhost[24].udpApp  "End-to-end delay"  ETV
488	252961 594 919548 2796161 70.016276039698 7270.019796039699 13 0.016276039698 0.020756039698 0.23782851608 0.0043725368508314
vector 482  csma802154net.fixhost[18].udpApp  "End-to-end delay"  ETV
482	252367 594 923637 2802395 71.032156144391 7271.079660114616 13 0.031164114617 0.079660114616 0.641061549563 0.034191430285155
vector 471  csma802154net.fixhost[7].udpApp  "End-to-end delay"  ETV
471	248805 594 924318 2799404 71.034396126791 7271.022956067934 13 0.019436067935 0.034396126791 0.309652942006 0.0075769135290745
vector 474  csma802154net.fixhost[10].udpApp  "End-to-end delay"  ETV
474	249399 594 925588 2801294 71.071660102677 7271.049404102677 13 0.028924102677 0.071660102677 0.566901334804 0.027047194511511
vector 475  csma802154net.fixhost[11].udpApp  "End-to-end delay"  ETV
475	249993 592 929135 2805947 72.02480407616 7272.021356076161 13 0.021036076161 0.038844103704 0.320853045175 0.0082172227337835
vector 478  csma802154net.fixhost[14].udpApp  "End-to-end delay"  ETV
478	251179 594 930190 2808299 72.029532082523 7272.050260082524 13 0.023524082524 0.074260082523 0.515397137582 0.023236949799579
vector 479  csma802154net.fixhost[15].udpApp  "End-to-end delay"  ETV
479	251773 594 930741 2807236 72.033084107978 7272.026364107979 13 0.026364107979 0.081900107979 0.619773403714 0.034688770979566
vector 467  csma802154net.fixhost[3].udpApp  "End-to-end delay"  ETV
467	247025 592 935943 2812964 73.032836089035 7273.028604089036 13 0.025476089036 0.063724147891 0.500213392882 0.02214838802433
vector 468  csma802154net.fixhost[4].udpApp  "End-to-end delay"  ETV
468	247617 594 937319 2815805 73.041892128891 7273.049252128892 13 0.031156128893 0.080788128892 0.604765675594 0.031036652618402
vector 469  csma802154net.fixhost[5].udpApp  "End-to-end delay"  ETV
469	248211 594 938449 2814114 73.065252145515 7273.035884145518 13 0.035884145518 0.099668145519 0.848758021288 0.060159877215505
