version 2
run AODVScenario_1f-67-20121121-15:02:38-7408
attr configname AODVScenario_1f
attr datetime 20121121-15:02:38
attr experiment AODVScenario_1f
attr inifile AODV.ini
attr iterationvars $numNodes=117
attr iterationvars2 "$numNodes=117, $repetition=0"
attr measurement $numNodes=117
attr network csma802154net
attr numNodes 117
attr processid 7408
attr repetition 0
attr replication #0
attr resultdir results
attr runnumber 67
attr seedset 67

vector 479  csma802154net.dataCentricNetworkMan  RREQPacketFrequency  ETV
vector 480  csma802154net.dataCentricNetworkMan  RERRPacketFrequency  ETV
vector 481  csma802154net.dataCentricNetworkMan  DiscoveryPacketFrequency  ETV
vector 482  csma802154net.dataCentricNetworkMan  RegisterPacketFrequency  ETV
vector 483  csma802154net.dataCentricNetworkMan  RReplyPacketFrequency  ETV
vector 484  csma802154net.dataCentricNetworkMan  AODVDataPacketFrequency  ETV
vector 491  csma802154net.dataCentricNetworkMan  pendingRegistrationVector  ETV
vector 490  csma802154net.dataCentricNetworkMan  pendingRREQVector  ETV
vector 488  csma802154net.dataCentricNetworkMan  PendingDataPacketsVector  ETV
vector 499  csma802154net.fixhost[7].udpApp  "End-to-end delay"  ETV
vector 476  csma802154net.dataCentricNetworkMan  dataPacketE2EDelay  ETV
vector 503  csma802154net.fixhost[11].udpApp  "End-to-end delay"  ETV
vector 494  csma802154net.fixhost[2].udpApp  "End-to-end delay"  ETV
vector 502  csma802154net.fixhost[10].udpApp  "End-to-end delay"  ETV
vector 500  csma802154net.fixhost[8].udpApp  "End-to-end delay"  ETV
vector 515  csma802154net.fixhost[23].udpApp  "End-to-end delay"  ETV
vector 496  csma802154net.fixhost[4].udpApp  "End-to-end delay"  ETV
vector 505  csma802154net.fixhost[13].udpApp  "End-to-end delay"  ETV
476	1361089	70.008036020793	0.008036020793
476	1362271	70.018196064211	0.018196064211
476	1365382	71.020396092702	0.020396092702
476	1365958	71.024516121966	0.024516121966
476	1369965	72.024836076942	0.024836076942
476	1371120	72.055484104239	0.055484104239
476	1375253	73.029956088341	0.029956088341
476	1377062	73.055764115813	0.055764115813
476	1521389	670.008036020793	0.008036020793
476	1522571	670.017236064213	0.017236064213
476	1525377	671.018836060012	0.018836060012
476	1526513	671.046564091183	0.046564091183
476	1530393	672.026756076941	0.026756076941
476	1531680	672.05701210424	0.05701210424
476	1535830	673.028036088341	0.028036088341
476	1538264	673.063692115812	0.063692115812
476	1682591	1270.009956020793	0.009956020793
476	1683773	1270.019796064213	0.019796064213
476	1686333	1271.016916060012	0.016916060012
476	1687465	1271.028004091184	0.028004091184
476	1691222	1272.028036076942	0.028036076942
476	1692370	1272.033724104239	0.033724104239
476	1696797	1273.02995608834	0.02995608834
476	1698029	1273.039444115812	0.039444115812
476	1842473	1870.009956020792	0.009956020792
476	1843656	1870.020756064212	0.020756064212
476	1846216	1871.017236060012	0.017236060012
476	1847348	1871.025764091184	0.025764091184
476	1851631	1872.048124104239	0.048124104239
476	1852821	1872.055020076941	0.055020076941
476	1856952	1873.02643608834	0.02643608834
476	1860266	1873.079692115812	0.079692115812
476	2004594	2470.010276020792	0.010276020792
476	2005775	2470.019156064211	0.019156064211
476	2008338	2471.017556060012	0.017556060012
476	2009467	2471.025124091184	0.025124091184
476	2013466	2472.031556076942	0.031556076942
476	2014621	2472.05452410424	0.05452410424
476	2019090	2473.030876116321	0.030876116321
476	2020318	2473.037236148181	0.037236148181
476	2164645	3070.008996020793	0.008996020793
476	2165827	3070.017556064213	0.017556064213
476	2168387	3071.017876060012	0.017876060012
476	2169519	3071.027684091184	0.027684091184
476	2173399	3072.029956076942	0.029956076942
476	2174685	3072.06053210424	0.06053210424
476	2178818	3073.026756088341	0.026756088341
476	2180627	3073.053524115812	0.053524115812
476	2325071	3670.008676020792	0.008676020792
476	2326253	3670.017556064212	0.017556064212
476	2328812	3671.01787606001	0.01787606001
476	2330781	3671.050084091183	0.050084091183
476	2334514	3672.028036104239	0.028036104239
476	2336576	3672.061100076941	0.061100076941
476	2340573	3673.025476088341	0.025476088341
476	2342521	3673.061132115812	0.061132115812
476	2486848	4270.008676020792	0.008676020792
476	2488030	4270.017236064211	0.017236064211
476	2491148	4271.021996092699	0.021996092699
476	2491725	4271.026756121962	0.026756121962
476	2495733	4272.025796076941	0.025796076941
476	2496888	4272.050684104238	0.050684104238
476	2501356	4273.028036088339	0.028036088339
476	2504391	4273.08282011581	0.08282011581
476	2648718	4870.008996020793	0.008996020793
476	2649900	4870.017556064213	0.017556064213
476	2653014	4871.022316092702	0.022316092702
476	2653591	4871.026756121966	0.026756121966
476	2657917	4872.027964104238	0.027964104238
476	2658520	4872.031484076941	0.031484076941
476	2662970	4873.031836116321	0.031836116321
476	2664198	4873.039476148181	0.039476148181
476	2808642	5470.007396020793	0.007396020793
476	2809824	5470.016596064213	0.016596064213
476	2812384	5471.018836060011	0.018836060011
476	2813516	5471.026404091183	0.026404091183
476	2817246	5472.028036104239	0.028036104239
476	2818442	5472.038844076941	0.038844076941
476	2823520	5473.039156148689	0.039156148689
476	2824125	5473.042636181337	0.042636181337
476	2968452	6070.008036020792	0.008036020792
476	2969634	6070.017236064211	0.017236064211
476	2972749	6071.020716092702	0.020716092702
476	2973326	6071.028036121966	0.028036121966
476	2977059	6072.029316104238	0.029316104238
476	2979114	6072.06021207694	0.06021207694
476	2983567	6073.027996116321	0.027996116321
476	2984799	6073.036844148181	0.036844148181
476	3129126	6670.008356020793	0.008356020793
476	3130309	6670.020436064213	0.020436064213
476	3133425	6671.025516092701	0.025516092701
476	3134001	6671.030276121965	0.030276121965
476	3137998	6672.025156076941	0.025156076941
476	3139152	6672.047484104239	0.047484104239
476	3143047	6673.02515608834	0.02515608834
476	3144846	6673.036884115812	0.036884115812
476	3289290	7270.008996020793	0.008996020793
476	3290472	7270.017876064213	0.017876064213
476	3293591	7271.025196092701	0.025196092701
476	3294167	7271.029636121964	0.029636121964
476	3298489	7272.022596076942	0.022596076942
476	3299069	7272.02476410424	0.02476410424
476	3303202	7273.02547608834	0.02547608834
476	3305011	7273.054484115812	0.054484115812
479	929	1.005	1
479	1062	1.01	0
479	1914	1.016662285512	104
479	2924	1.021662285512	41
479	5275	1.026662285512	126
479	8326	1.031662285512	150
479	10812	1.036662285512	80
479	13662	1.041662285512	82
479	16189	1.046662285512	86
479	17427	1.051662285512	57
479	19554	1.056662285512	101
479	21158	1.061662285512	109
479	22903	1.066662285512	99
479	23870	1.071662285512	67
479	25396	1.076662285512	102
479	27350	1.081662285512	93
479	29270	1.086662285512	112
479	30196	1.091662285512	37
479	32085	1.096662285512	153
479	32987	1.101662285512	82
479	33907	1.106662285512	90
479	33914	1.111662285512	0
479	35865	1.119155429657	146
479	36005	1.124155429657	0
479	37048	1.129478103291	84
479	38146	1.134478103291	125
479	38626	1.139478103291	22
479	39788	1.144478103291	113
479	40713	1.149478103291	63
479	41921	1.154478103291	125
479	43441	1.159478103291	127
479	44358	1.164478103291	79
479	46015	1.169478103291	114
479	46873	1.174478103291	73
479	47383	1.179478103291	55
479	47384	1.184478103291	0
479	48339	1.194289359108	70
479	49178	1.199289359108	98
479	49182	1.204289359108	0
479	49848	1.212269829574	61
479	50250	1.217269829574	58
479	50254	1.222269829574	0
479	50649	1.229776313655	32
479	50650	1.234776313655	0
479	51178	1.276207072198	58
479	51179	1.281207072198	0
479	61359	43.505	1
479	62033	43.51	45
479	64480	43.515	0
479	66453	43.52	0
479	67712	43.525	0
479	69422	43.533297130376	0
479	71194	43.538297130376	0
479	72469	43.543297130376	0
479	73705	43.548297130376	0
479	75315	43.553297130376	0
479	76725	43.558297130376	0
479	78188	43.563297130376	0
479	81844	43.576291406936	0
479	82866	43.581291406936	0
479	84006	43.586291406936	0
479	88739	43.606285217573	0
479	90153	43.611285217573	0
479	91497	43.616285217573	0
479	92737	43.621285217573	0
479	95081	43.629430636056	0
479	96233	43.634430636056	0
479	98633	43.643306698474	0
479	99991	43.648306698474	0
479	102046	43.658544174995	0
479	103165	43.663544174995	0
479	104425	43.668544174995	0
479	105447	43.673544174995	0
479	107218	43.680831051247	0
479	108068	43.685831051247	0
479	109315	43.690831051247	0
479	110618	43.695831051247	0
479	111586	43.700831051247	0
479	113267	43.708963798407	0
479	114517	43.713963798407	0
479	115367	43.718963798407	0
479	116321	43.723963798407	0
479	117786	43.729287330422	0
479	118935	43.734287330422	0
479	120356	43.739287330422	0
479	121504	43.744287330422	0
479	122224	43.749287330422	0
479	123650	43.754287330422	0
479	124930	43.759287330422	0
479	126454	43.765795819303	0
479	127359	43.770795819303	0
479	128490	43.775795819303	0
479	129580	43.780795819303	0
479	131473	43.788161400228	0
479	132473	43.793161400228	0
479	133825	43.798161400228	0
479	135156	43.803161400228	0
479	137280	43.814288260542	0
479	137844	43.819288260542	0
479	138568	43.824288260542	0
479	141115	43.837253879989	0
479	142368	43.842253879989	0
479	143047	43.847253879989	0
479	144160	43.853749083981	0
479	145044	43.858749083981	0
479	145879	43.863749083981	0
479	146974	43.868749083981	0
479	148044	43.873749083981	0
479	148807	43.880433153527	0
479	149756	43.885433153527	0
479	151752	43.892164357997	0
479	151882	43.897164357997	0
479	152888	43.903283125554	0
479	153771	43.908283125554	0
479	155045	43.913283125554	0
479	156010	43.918283125554	0
479	157668	43.940890307097	0
479	158259	43.945890307097	0
479	158841	43.950890307097	0
479	159083	44.505	1
479	159090	44.51	0
479	162561	44.519319719165	66
479	165670	44.524319719165	0
479	168115	44.529319719165	0
479	169841	44.534319719165	0
479	171936	44.539319719165	0
479	174056	44.544319719165	0
479	175956	44.549319719165	0
479	179453	44.560249950245	0
479	180591	44.565249950245	0
479	181998	44.570249950245	0
479	185366	44.580007010115	0
479	186857	44.585007010115	0
479	188119	44.590007010115	0
479	189424	44.595007010115	0
479	191310	44.600007010115	0
479	194127	44.60861910632	0
479	195512	44.61361910632	0
479	200487	44.628425975882	0
479	201871	44.633425975882	0
479	203681	44.639167948086	0
479	205689	44.644167948086	0
479	208811	44.654952646082	0
479	210486	44.659952646082	0
479	212389	44.665867115773	0
479	213783	44.670867115773	0
479	216386	44.679058132627	0
479	218469	44.684058132627	0
479	219963	44.689058132627	0
479	225749	44.708726873829	0
479	226902	44.713726873829	0
479	228057	44.718726873829	0
479	229566	44.723726873829	0
479	231703	44.728726873829	0
479	232546	44.733726873829	0
479	236575	44.747106308068	0
479	238093	44.752106308068	0
479	239470	44.757106308068	0
479	242031	44.764985118822	0
479	243173	44.769985118822	0
479	244583	44.774985118822	0
479	246081	44.779985118822	0
479	247270	44.784985118822	0
479	249410	44.792464154159	0
479	250700	44.797464154159	0
479	251872	44.802464154159	0
479	253013	44.807464154159	0
479	254027	44.812937403947	0
479	255755	44.817937403947	0
479	257250	44.822937403947	0
479	258538	44.827937403947	0
479	260139	44.833365522033	0
479	261660	44.838365522033	0
479	262698	44.843365522033	0
479	264735	44.852382636623	0
479	266856	44.857382636623	0
479	268236	44.862382636623	0
479	269745	44.867382636623	0
479	271843	44.874553387572	0
479	273411	44.879553387572	0
479	274430	44.884553387572	0
479	275621	44.889553387572	0
479	277362	44.89508132353	0
479	278762	44.90008132353	0
479	279619	44.90508132353	0
479	280921	44.91008132353	0
479	282282	44.91508132353	0
479	284041	44.922898936506	0
479	285208	44.927898936506	0
479	286844	44.936682006998	0
479	287949	44.941682006998	0
479	288687	44.946682006998	0
479	290635	44.95301820057	0
479	292128	44.95801820057	0
479	293365	44.967504824902	0
479	295082	44.972504824902	0
479	295936	44.977504824902	0
479	297086	44.982504824902	0
479	297666	44.987504824902	0
479	298581	44.992504824902	0
479	299833	44.997504824902	0
479	301784	45.005476084374	0
479	302787	45.010476084374	0
479	304085	45.015933604454	0
479	305183	45.020933604454	0
479	306637	45.025933604454	0
479	307778	45.030933604454	0
479	309505	45.042306523606	0
479	310463	45.047306523606	0
479	311237	45.052368552049	0
479	312175	45.057368552049	0
479	313467	45.062973522755	0
479	313901	45.067973522755	0
479	315926	45.07688059519	0
479	316981	45.08188059519	0
479	318007	45.08688059519	0
479	318788	45.09188059519	0
479	319528	45.09688059519	0
479	319983	45.10188059519	0
479	319984	45.10688059519	0
479	320593	45.120895959128	0
479	320594	45.125895959128	0
479	321754	45.162192650592	0
479	322176	45.167192650592	0
479	322358	45.172192650592	0
479	322973	45.186543323588	0
479	322974	45.191543323588	0
479	323576	45.270247351158	0
479	323577	45.275247351158	0
479	323584	45.505	1
479	323717	45.51	0
479	325931	45.515539649189	40
479	328047	45.520539649189	0
479	329947	45.526037870439	0
479	331190	45.531037870439	0
479	332487	45.536542165919	0
479	334248	45.541542165919	0
479	335524	45.546542165919	0
479	337675	45.551542165919	0
479	338978	45.556542165919	0
479	340512	45.561542165919	0
479	341769	45.566542165919	0
479	348540	45.598057341872	0
479	349669	45.603057341872	0
479	352337	45.616144794575	0
479	353438	45.621144794575	0
479	354828	45.626144794575	0
479	359838	45.649730372554	0
479	360823	45.654730372554	0
479	362090	45.659864324413	0
479	363607	45.664864324413	0
479	365470	45.673570569656	0
479	366603	45.678570569656	0
479	367891	45.683570569656	0
479	369030	45.688570569656	0
479	370835	45.695824814719	0
479	371932	45.700824814719	0
479	374860	45.712783797169	0
479	375840	45.717783797169	0
479	377012	45.722783797169	0
479	378458	45.727783797169	0
479	379729	45.732783797169	0
479	381533	45.740042853453	0
479	382649	45.745042853453	0
479	385129	45.757507853821	0
479	386308	45.762507853821	0
479	387550	45.767507853821	0
479	388565	45.772507853821	0
479	389435	45.777507853821	0
479	391090	45.783065730026	0
479	391981	45.788065730026	0
479	392890	45.793065730026	0
479	393716	45.798065730026	0
479	394299	45.803065730026	0
479	395312	45.808946478163	0
479	396269	45.813946478163	0
479	397692	45.818946478163	0
479	398812	45.823946478163	0
479	399642	45.828946478163	0
479	401046	45.833946478163	0
479	402006	45.838946478163	0
479	403686	45.847506604612	0
479	403971	45.852506604612	0
479	405095	45.860528816096	0
479	406104	45.865528816096	0
479	407249	45.870528816096	0
479	408708	45.879320355223	0
479	409528	45.884320355223	0
479	410211	45.889320355223	0
479	411036	45.894320355223	0
479	411633	45.899320355223	0
479	411639	45.904320355223	0
479	412339	45.91081072704	0
479	412906	45.91581072704	0
479	413358	45.92081072704	0
479	413944	45.934401355832	0
479	414071	45.939401355832	0
479	415133	45.946105376708	0
479	415263	45.951105376708	0
479	417017	45.959662041438	0
479	417447	45.964662041438	0
479	418630	45.971855669805	0
479	418631	45.976855669805	0
479	419005	46.505	1
479	420651	46.51	38
479	422144	46.515	0
479	424772	46.52	0
479	426586	46.525	0
479	428315	46.53	0
479	429291	46.535	0
479	430441	46.54	0
479	431694	46.545	0
479	432950	46.55	0
479	434217	46.555	0
479	435353	46.56	0
479	436382	46.565	0
479	437519	46.57	0
479	438395	46.575	0
479	439642	46.58	0
479	440945	46.585	0
479	442341	46.59	0
479	443622	46.597637795	0
479	444524	46.602637795	0
479	446067	46.607637795	0
479	447339	46.612637795	0
479	448194	46.617637795	0
479	448627	46.622637795	0
479	449343	46.628893566179	0
479	450339	46.633893566179	0
479	451578	46.638893566179	0
479	452744	46.644789813495	0
479	453842	46.649789813495	0
479	454986	46.654789813495	0
479	455839	46.659789813495	0
479	456936	46.664789813495	0
479	457932	46.669789813495	0
479	458953	46.674789813495	0
479	460461	46.679789813495	0
479	461455	46.684789813495	0
479	462448	46.689789813495	0
479	465061	46.700145667049	0
479	466075	46.705145667049	0
479	467227	46.710145667049	0
479	468351	46.715145667049	0
479	469336	46.720145667049	0
479	471268	46.729821917586	0
479	471721	46.734821917586	0
479	473122	46.739821917586	0
479	474439	46.745855063497	0
479	475470	46.750855063497	0
479	476292	46.755855063497	0
479	477844	46.761178741552	0
479	478692	46.766178741552	0
479	479718	46.771178741552	0
479	480561	46.776178741552	0
479	481665	46.781178741552	0
479	482217	46.786178741552	0
479	485007	46.803455337808	0
479	485720	46.808455337808	0
479	486794	46.813455337808	0
479	487836	46.818455337808	0
479	488554	46.823455337808	0
479	489892	46.829749345223	0
479	490915	46.834749345223	0
479	492130	46.839749345223	0
479	494577	46.860194823367	0
479	495634	46.865194823367	0
479	496320	46.870194823367	0
479	497207	46.875194823367	0
479	497917	46.880194823367	0
479	498044	46.885194823367	0
479	498468	46.891649826288	0
479	499059	46.896649826288	0
479	499433	47.505	1
479	500928	47.51	46
479	502949	47.515	0
479	504672	47.52	0
479	506698	47.527600226298	0
479	507833	47.532600226298	0
479	509061	47.537600226298	0
479	510626	47.542600226298	0
479	511759	47.547600226298	0
479	512929	47.553952038073	0
479	514159	47.558952038073	0
479	517860	47.575139594606	0
479	518849	47.580139594606	0
479	522092	47.590911323112	0
479	522938	47.595911323112	0
479	524499	47.601817326834	0
479	525881	47.606817326834	0
479	527397	47.611817326834	0
479	529562	47.618616063905	0
479	530582	47.623616063905	0
479	531745	47.628616063905	0
479	533542	47.633616063905	0
479	534852	47.638616063905	0
479	537897	47.654880798202	0
479	539274	47.659880798202	0
479	540551	47.664880798202	0
479	543415	47.677787808434	0
479	544513	47.682787808434	0
479	549267	47.701212455544	0
479	550303	47.706212455544	0
479	551230	47.711212455544	0
479	552888	47.716212455544	0
479	554300	47.722851847798	0
479	554939	47.727851847798	0
479	556465	47.732851847798	0
479	557339	47.737851847798	0
479	559035	47.744710638688	0
479	560299	47.749710638688	0
479	561181	47.754710638688	0
479	562340	47.759710638688	0
479	562778	47.764710638688	0
479	563691	47.769710638688	0
479	565244	47.774710638688	0
479	566651	47.779710638688	0
479	567739	47.784710638688	0
479	569223	47.791130543623	0
479	570101	47.796130543623	0
479	571511	47.803251538419	0
479	572371	47.808251538419	0
479	573397	47.813251538419	0
479	574528	47.818251538419	0
479	575793	47.823251538419	0
479	576415	47.828251538419	0
479	577265	47.833251538419	0
479	578574	47.838524762345	0
479	579788	47.843524762345	0
479	580765	47.848524762345	0
479	582421	47.857130175733	0
479	582986	47.862130175733	0
479	584509	47.867832926202	0
479	585530	47.872832926202	0
479	589453	47.891751038598	0
479	590731	47.896751038598	0
479	591639	47.901751038598	0
479	592352	47.906751038598	0
479	593378	47.911751038598	0
479	594393	47.916751038598	0
479	595256	47.921751038598	0
479	596020	47.926751038598	0
479	596884	47.931751038598	0
479	598580	47.942286611785	0
479	599274	47.947286611785	0
479	599973	47.952286611785	0
479	600285	47.957286611785	0
479	602002	47.966315394359	0
479	602688	47.971315394359	0
479	603997	47.976315394359	0
479	604306	47.981315394359	0
479	604877	47.986315394359	0
479	605591	47.997515322033	0
479	606525	48.002515322033	0
479	607124	48.007515322033	0
479	607730	48.012515322033	0
479	608924	48.022248250546	0
479	609765	48.027248250546	0
479	610072	48.032248250546	0
479	611799	48.054672819702	0
479	612402	48.059672819702	0
479	612403	48.064672819702	0
479	612410	48.505	1
479	612543	48.51	0
479	614824	48.516807928989	48
479	616564	48.521807928989	0
479	619603	48.529374189556	0
479	620910	48.534374189556	0
479	622321	48.539374189556	0
479	624571	48.544374189556	0
479	626027	48.549374189556	0
479	627577	48.554374189556	0
479	629140	48.559374189556	0
479	630264	48.564374189556	0
479	631733	48.569374189556	0
479	632816	48.574374189556	0
479	634114	48.579374189556	0
479	635838	48.586323482226	0
479	636880	48.591323482226	0
479	638047	48.596323482226	0
479	639195	48.601323482226	0
479	640552	48.606323482226	0
479	641875	48.611323482226	0
479	643226	48.616323482226	0
479	644491	48.621323482226	0
479	645380	48.626323482226	0
479	647168	48.634219487919	0
479	648824	48.639219487919	0
479	650267	48.644219487919	0
479	650971	48.649219487919	0
479	653928	48.663138518595	0
479	655432	48.668138518595	0
479	656473	48.673138518595	0
479	657479	48.678138518595	0
479	658800	48.683755770017	0
479	659859	48.688755770017	0
479	661037	48.693755770017	0
479	662076	48.698755770017	0
479	663757	48.706459846804	0
479	665330	48.711459846804	0
479	666763	48.716459846804	0
479	668021	48.721459846804	0
479	669001	48.726459846804	0
479	670326	48.731459846804	0
479	671371	48.736459846804	0
479	672626	48.741459846804	0
479	673887	48.746459846804	0
479	675428	48.751459846804	0
479	676155	48.756459846804	0
479	676729	48.761459846804	0
479	677609	48.766459846804	0
479	680077	48.777534510659	0
479	681218	48.782534510659	0
479	682593	48.788266281063	0
479	683487	48.793266281063	0
479	684785	48.798266281063	0
479	686173	48.803266281063	0
479	688702	48.815516407329	0
479	689860	48.820516407329	0
479	693884	48.842211302916	0
479	694801	48.847211302916	0
479	696410	48.852211302916	0
479	697287	48.857211302916	0
479	699094	48.867788259633	0
479	700462	48.872788259633	0
479	701869	48.879298689045	0
479	702939	48.884298689045	0
479	703689	48.889298689045	0
479	704941	48.894298689045	0
479	706793	48.899298689045	0
479	707522	48.904298689045	0
479	708368	48.909298689045	0
479	709472	48.916740829559	0
479	710603	48.921740829559	0
479	711459	48.926740829559	0
479	711464	48.931740829559	0
479	712373	48.938809846801	0
479	713369	48.943809846801	0
479	714530	48.948809846801	0
479	715636	48.9574613285	0
479	716505	48.9624613285	0
479	717298	48.96818453992	0
479	718165	48.97318453992	0
479	719490	48.980231927678	0
479	720491	48.985231927678	0
479	721219	48.990231927678	0
479	722549	49.002394649864	0
479	723161	49.007394649864	0
479	724217	49.505	33
479	726561	49.51	0
479	728718	49.515	0
479	729972	49.52	0
479	731692	49.525	0
479	733351	49.53	0
479	735066	49.535	0
479	736525	49.54	0
479	738191	49.545	0
479	739722	49.55	0
479	741964	49.555	0
479	743342	49.56	0
479	744865	49.565	0
479	745723	49.57	0
479	747017	49.575	0
479	748041	49.58	0
479	749311	49.585	0
479	750567	49.59	0
479	752406	49.595	0
479	753371	49.6	0
479	756765	49.614689710981	0
479	757736	49.619689710981	0
479	760443	49.633793961618	0
479	761011	49.638793961618	0
479	762455	49.644131121268	0
479	763958	49.649131121268	0
479	766533	49.661264335437	0
479	767346	49.666264335437	0
479	770593	49.681446628869	0
479	771682	49.686446628869	0
479	772816	49.691446628869	0
479	773685	49.696446628869	0
479	774568	49.701446628869	0
479	775613	49.706446628869	0
479	776462	49.711446628869	0
479	777599	49.719686527798	0
479	778277	49.724686527798	0
479	778751	49.729686527798	0
479	779467	49.734686527798	0
479	780812	49.739686527798	0
479	782374	49.744686527798	0
479	782964	49.749686527798	0
479	783802	49.754686527798	0
479	784918	49.759686527798	0
479	786293	49.764686527798	0
479	787514	49.770854470392	0
479	788106	49.775854470392	0
479	789127	49.780854470392	0
479	789140	49.785854470392	0
479	790274	49.791204605248	0
479	790812	49.796204605248	0
479	793111	49.822894599235	0
479	793240	49.827894599235	0
479	794121	49.832894599235	0
479	795109	49.837894599235	0
479	795407	49.842894599235	0
479	796114	49.861116239459	0
479	796535	49.866116239459	0
479	797798	49.910240709248	0
479	798505	49.915240709248	0
479	798506	49.920240709248	0
479	799070	49.942373435199	0
479	799071	49.947373435199	0
479	799379	50.505	1
479	799512	50.51	0
479	802333	50.516440553871	48
479	804465	50.521440553871	0
479	806445	50.526440553871	0
479	809017	50.535614480756	0
479	810658	50.540614480756	0
479	811989	50.545614480756	0
479	813528	50.550614480756	0
479	815042	50.555614480756	0
479	815921	50.561477943094	0
479	817094	50.566477943094	0
479	818924	50.571512759109	0
479	821199	50.576512759109	0
479	822683	50.581512759109	0
479	824527	50.586512759109	0
479	825604	50.591512759109	0
479	827039	50.596512759109	0
479	828392	50.601512759109	0
479	829726	50.606512759109	0
479	831045	50.611512759109	0
479	832745	50.616512759109	0
479	833765	50.621512759109	0
479	835134	50.626512759109	0
479	839370	50.643503460519	0
479	840854	50.648503460519	0
479	842415	50.654294136397	0
479	843728	50.659294136397	0
479	844956	50.664294136397	0
479	846015	50.669294136397	0
479	848937	50.682051008876	0
479	850251	50.687051008876	0
479	850971	50.692051008876	0
479	853255	50.700934494745	0
479	854383	50.705934494745	0
479	856089	50.710934494745	0
479	857811	50.715934494745	0
479	858689	50.720934494745	0
479	860010	50.725934494745	0
479	861032	50.730934494745	0
479	862246	50.735934494745	0
479	863680	50.740934494745	0
479	864750	50.745934494745	0
479	866057	50.750934494745	0
479	867016	50.755934494745	0
479	868373	50.762448699653	0
479	869623	50.767448699653	0
479	870755	50.77316923059	0
479	872530	50.77816923059	0
479	873555	50.78316923059	0
479	876274	50.790810851301	0
479	877182	50.795810851301	0
479	878231	50.800810851301	0
479	879417	50.805810851301	0
479	881574	50.814997264646	0
479	882781	50.819997264646	0
479	883813	50.824997264646	0
479	884836	50.829997264646	0
479	885290	50.834997264646	0
479	886606	50.840327728217	0
479	888098	50.845327728217	0
479	889570	50.851798375471	0
479	890517	50.856798375471	0
479	891637	50.861798375471	0
479	892618	50.866798375471	0
479	893822	50.87289396465	0
479	894926	50.87789396465	0
479	896073	50.88289396465	0
479	897432	50.889828889002	0
479	897862	50.894828889002	0
479	899294	50.902244717562	0
479	900640	50.907244717562	0
479	901538	50.912244717562	0
479	902553	50.917244717562	0
479	902560	50.922244717562	0
479	903267	50.929214207348	0
479	903862	50.934214207348	0
479	905070	50.939214207348	0
479	906226	50.944214207348	0
479	906715	50.949214207348	0
479	907591	50.954214207348	0
479	907593	50.959214207348	0
479	909372	50.988843896321	0
479	909373	50.993843896321	0
479	910254	51.505	1
479	910261	51.51	0
479	913019	51.519091238228	52
479	914664	51.524091238228	0
479	918062	51.532031829708	0
479	919925	51.537031829708	0
479	921566	51.542031829708	0
479	923311	51.547031829708	0
479	925359	51.552031829708	0
479	927421	51.557031829708	0
479	929428	51.563561220857	0
479	930804	51.568561220857	0
479	932664	51.573561220857	0
479	934238	51.578561220857	0
479	935563	51.583561220857	0
479	937489	51.590132621407	0
479	939199	51.595132621407	0
479	940800	51.600132621407	0
479	942849	51.605132621407	0
479	944477	51.610132621407	0
479	946095	51.615132621407	0
479	947614	51.620132621407	0
479	949775	51.628801231758	0
479	950676	51.633801231758	0
479	952026	51.638801231758	0
479	954365	51.64455044104	0
479	955659	51.64955044104	0
479	957346	51.65476820232	0
479	958741	51.65976820232	0
479	960702	51.66476820232	0
479	962113	51.66976820232	0
479	964234	51.67476820232	0
479	967160	51.688072144775	0
479	968460	51.693072144775	0
479	969317	51.698072144775	0
479	971028	51.703659492654	0
479	972406	51.708659492654	0
479	976095	51.723897455909	0
479	977410	51.728897455909	0
479	978860	51.733897455909	0
479	980173	51.738897455909	0
479	981494	51.743897455909	0
479	983232	51.751621489577	0
479	985043	51.756621489577	0
479	988236	51.767390068695	0
479	989963	51.772390068695	0
479	991128	51.777390068695	0
479	992571	51.782390068695	0
479	993965	51.787390068695	0
479	996407	51.797356561721	0
479	997361	51.802356561721	0
479	998252	51.807356561721	0
479	999760	51.812356561721	0
479	1001339	51.817356561721	0
479	1003079	51.823701803461	0
479	1004289	51.828701803461	0
479	1005453	51.833701803461	0
479	1007324	51.840393999154	0
479	1008673	51.845393999154	0
479	1010131	51.850393999154	0
479	1011150	51.855393999154	0
479	1012174	51.860393999154	0
479	1013375	51.865393999154	0
479	1014944	51.870393999154	0
479	1015675	51.875393999154	0
479	1016844	51.880393999154	0
479	1018006	51.885393999154	0
479	1019277	51.891758088861	0
479	1020697	51.896758088861	0
479	1021671	51.901758088861	0
479	1022841	51.906758088861	0
479	1023894	51.911758088861	0
479	1025215	51.916758088861	0
479	1026222	51.921758088861	0
479	1026967	51.928259483969	0
479	1027836	51.933259483969	0
479	1029029	51.938259483969	0
479	1030203	51.943259483969	0
479	1030995	51.948259483969	0
479	1031603	51.953259483969	0
479	1032839	51.961385333178	0
479	1033585	51.966385333178	0
479	1035182	51.97372521215	0
479	1035630	51.97872521215	0
479	1035803	51.98372521215	0
479	1038354	52.022344398976	0
479	1038358	52.027344398976	0
479	1041228	52.094243587349	0
479	1041229	52.099243587349	0
479	1041406	52.505	1
479	1042858	52.51	33
479	1044413	52.515	0
479	1046400	52.52	0
479	1048790	52.525	0
479	1050516	52.53	0
479	1052076	52.535	0
479	1053732	52.54	0
479	1054657	52.545	0
479	1056130	52.55	0
479	1056811	52.555	0
479	1058273	52.56	0
479	1059392	52.565	0
479	1062483	52.575293734913	0
479	1063637	52.580293734913	0
479	1065080	52.585293734913	0
479	1066247	52.590293734913	0
479	1069627	52.598925039386	0
479	1070900	52.603925039386	0
479	1071939	52.608925039386	0
479	1072955	52.613925039386	0
479	1074663	52.618925039386	0
479	1077511	52.626569245083	0
479	1078218	52.631569245083	0
479	1079802	52.636569245083	0
479	1083557	52.653042364273	0
479	1084816	52.658042364273	0
479	1086724	52.667234487153	0
479	1087606	52.672234487153	0
479	1088958	52.678504665742	0
479	1089801	52.683504665742	0
479	1091631	52.692349845081	0
479	1092660	52.697349845081	0
479	1093355	52.702349845081	0
479	1095209	52.708799324044	0
479	1097218	52.713799324044	0
479	1097789	52.718799324044	0
479	1098788	52.723799324044	0
479	1099626	52.728799324044	0
479	1100469	52.733799324044	0
479	1101541	52.738799324044	0
479	1103216	52.746568643852	0
479	1104530	52.751568643852	0
479	1105149	52.756568643852	0
479	1106832	52.761568643852	0
479	1108240	52.766568643852	0
479	1109383	52.771568643852	0
479	1110547	52.776568643852	0
479	1111588	52.781568643852	0
479	1112197	52.786568643852	0
479	1113440	52.791568643852	0
479	1115004	52.796568643852	0
479	1116033	52.801568643852	0
479	1117104	52.808317782035	0