version 2
run AODVScenario_1f-23-20121121-14:48:06-2232
attr configname AODVScenario_1f
attr datetime 20121121-14:48:06
attr experiment AODVScenario_1f
attr inifile AODV.ini
attr iterationvars $numNodes=73
attr iterationvars2 "$numNodes=73, $repetition=0"
attr measurement $numNodes=73
attr network csma802154net
attr numNodes 73
attr processid 2232
attr repetition 0
attr replication #0
attr resultdir results
attr runnumber 23
attr seedset 23

vector 303  csma802154net.dataCentricNetworkMan  RREQPacketFrequency  ETV
vector 304  csma802154net.dataCentricNetworkMan  RERRPacketFrequency  ETV
vector 305  csma802154net.dataCentricNetworkMan  DiscoveryPacketFrequency  ETV
vector 306  csma802154net.dataCentricNetworkMan  RegisterPacketFrequency  ETV
vector 307  csma802154net.dataCentricNetworkMan  RReplyPacketFrequency  ETV
vector 308  csma802154net.dataCentricNetworkMan  AODVDataPacketFrequency  ETV
vector 315  csma802154net.dataCentricNetworkMan  pendingRegistrationVector  ETV
vector 314  csma802154net.dataCentricNetworkMan  pendingRREQVector  ETV
vector 312  csma802154net.dataCentricNetworkMan  PendingDataPacketsVector  ETV
vector 323  csma802154net.fixhost[7].udpApp  "End-to-end delay"  ETV
vector 300  csma802154net.dataCentricNetworkMan  dataPacketE2EDelay  ETV
vector 324  csma802154net.fixhost[8].udpApp  "End-to-end delay"  ETV
vector 317  csma802154net.fixhost[1].udpApp  "End-to-end delay"  ETV
vector 318  csma802154net.fixhost[2].udpApp  "End-to-end delay"  ETV
vector 329  csma802154net.fixhost[13].udpApp  "End-to-end delay"  ETV
vector 325  csma802154net.fixhost[9].udpApp  "End-to-end delay"  ETV
vector 327  csma802154net.fixhost[11].udpApp  "End-to-end delay"  ETV
vector 342  csma802154net.fixhost[26].udpApp  "End-to-end delay"  ETV
vector 341  csma802154net.fixhost[25].udpApp  "End-to-end delay"  ETV
vector 350  csma802154net.fixhost[34].udpApp  "End-to-end delay"  ETV
300	446643	70.008676013554	0.008676013554
300	447388	70.019156043651	0.019156043651
300	449240	71.017236056567	0.017236056567
300	450392	71.049940083407	0.049940083407
300	450769	71.05196410637	0.05196410637
300	453603	72.027396081521	0.027396081521
300	454343	72.034964108252	0.034964108252
300	458231	73.050316140507	0.050316140507
300	459704	73.084132128157	0.084132128157
300	460091	73.088572153287	0.088572153287
300	550563	670.008356013555	0.008356013555
300	551308	670.017556043653	0.017556043653
300	553160	671.018196056567	0.018196056567
300	553933	671.045924083407	0.045924083407
300	554686	671.05637210637	0.05637210637
300	557522	672.031196110691	0.031196110691
300	558265	672.038764130196	0.038764130196
300	561228	673.03151609697	0.03151609697
300	562848	673.044484140508	0.044484140508
300	564000	673.072572159912	0.072572159912
300	654102	1270.007396013555	0.007396013555
300	654847	1270.015636043652	0.015636043652
300	657007	1271.023244056567	0.023244056567
300	657472	1271.028964083407	0.028964083407
300	658226	1271.05228410637	0.05228410637
300	661058	1272.03311611069	0.03311611069
300	661802	1272.040436130195	0.040436130195
300	665043	1273.03023609697	0.03023609697
300	666374	1273.042244140508	0.042244140508
300	667923	1273.073140159912	0.073140159912
300	758098	1870.008036013555	0.008036013555
300	758843	1870.016276043652	0.016276043652
300	760542	1871.017556056567	0.017556056567
300	761487	1871.046564083406	0.046564083406
300	762248	1871.054452106368	0.054452106368
300	765470	1872.036636110691	0.036636110691
300	766214	1872.046124130195	0.046124130195
300	769465	1873.03119609697	0.03119609697
300	770780	1873.041036140507	0.041036140507
300	771932	1873.065604159912	0.065604159912
300	862034	2470.008036013555	0.008036013555
300	862779	2470.017236043653	0.017236043653
300	864855	2471.021036083407	0.021036083407
300	865607	2471.028924106369	0.028924106369
300	865993	2471.044436056567	0.044436056567
300	869213	2472.033716132635	0.033716132635
300	869575	2472.039116155618	0.039116155618
300	872611	2473.030876096971	0.030876096971
300	874707	2473.067772140509	0.067772140509
300	875483	2473.091060159912	0.091060159912
300	965585	3070.007716013555	0.007716013555
300	966330	3070.015316043653	0.015316043653
300	968411	3071.019084056567	0.019084056567
300	968950	3071.021036083407	0.021036083407
300	969707	3071.048124106369	0.048124106369
300	972542	3072.034396110691	0.034396110691
300	973283	3072.040756130196	0.040756130196
300	976319	3073.030556096971	0.030556096971
300	978236	3073.063364140509	0.063364140509
300	979005	3073.070012159913	0.070012159913
300	1069180	3670.009956013555	0.009956013555
300	1069925	3670.019156043653	0.019156043653
300	1072008	3671.019116083406	0.019116083406
300	1072772	3671.025412056566	0.025412056566
300	1073153	3671.027892106369	0.027892106369
300	1075694	3672.02771608152	0.02771608152
300	1076903	3672.065612108249	0.065612108249
300	1080146	3673.02959609697	0.02959609697
300	1081474	3673.040004140507	0.040004140507
300	1083018	3673.068092159912	0.068092159912
300	1173120	4270.008996013555	0.008996013555
300	1173865	4270.017556043652	0.017556043652
300	1175945	4271.021356083407	0.021356083407
300	1176337	4271.025804056567	0.025804056567
300	1177090	4271.031412106369	0.031412106369
300	1179631	4272.032516081517	0.032516081517
300	1180840	4272.064012108247	0.064012108247
300	1183873	4273.029276096967	0.029276096967
300	1186208	4273.064892159905	0.064892159905
300	1186578	4273.071860140501	0.071860140501
300	1276673	4870.008036013555	0.008036013555
300	1277418	4870.017236043653	0.017236043653
300	1279118	4871.017236056567	0.017236056567
300	1279883	4871.026084083406	0.026084083406
300	1280635	4871.032764106369	0.032764106369
300	1283469	4872.028036081521	0.028036081521
300	1284209	4872.034964108252	0.034964108252
300	1288193	4873.041996140509	0.041996140509
300	1289537	4873.065932096971	0.065932096971
300	1291095	4873.099308159911	0.099308159911
300	1381271	5470.012836013555	0.012836013555
300	1382015	5470.021396043653	0.021396043653
300	1384473	5471.022564083407	0.022564083407
300	1384850	5471.02451610637	0.02451610637
300	1385235	5471.028612056566	0.028612056566
300	1388070	5472.028316110691	0.028316110691
300	1388814	5472.035316130195	0.035316130195
300	1392817	5473.040076140508	0.040076140508
300	1394372	5473.076692187326	0.076692187326
300	1394760	5473.082732212456	0.082732212456
300	1484862	6070.008036013555	0.008036013555
300	1485607	6070.017236043653	0.017236043653
300	1487843	6071.022316083406	0.022316083406
300	1488975	6071.051324106369	0.051324106369
300	1489360	6071.056060056567	0.056060056567
300	1491992	6072.025476081521	0.025476081521
300	1493110	6072.055124108251	0.055124108251
300	1496910	6073.040396156139	0.040396156139
300	1497695	6073.050276191101	0.050276191101
300	1499227	6073.064324140508	0.064324140508
300	1589322	6670.009316013554	0.009316013554
300	1590067	6670.019796043652	0.019796043652
300	1592146	6671.019116083405	0.019116083405
300	1592686	6671.023884056566	0.023884056566
300	1593447	6671.053492106369	0.053492106369
300	1595988	6672.02675608152	0.02675608152
300	1597197	6672.061452108252	0.061452108252
300	1601196	6673.038476140507	0.038476140507
300	1602767	6673.062692128157	0.062692128157
300	1603323	6673.068412153286	0.068412153286
300	1693870	7270.008036013554	0.008036013554
300	1694615	7270.016276043651	0.016276043651
300	1696699	7271.024556083406	0.024556083406
300	1697460	7271.034692056566	0.034692056566
300	1697845	7271.040052106369	0.040052106369
300	1700680	7272.035356110691	0.035356110691
300	1701970	7272.068772130196	0.068772130196
300	1706159	7273.045124140508	0.045124140508
300	1707733	7273.072924187324	0.072924187324
300	1708120	7273.078324212454	0.078324212454
303	804	1.005	31
303	1064	1.01	0
303	1774	1.015087292511	53
303	2976	1.020087292511	36
303	4505	1.025087292511	80
303	5851	1.030087292511	61
303	7219	1.035087292511	80
303	8685	1.040087292511	67
303	9836	1.045087292511	72
303	10480	1.050087292511	54
303	11198	1.055087292511	35
303	11636	1.060087292511	26
303	12155	1.065087292511	41
303	12734	1.070087292511	42
303	13068	1.075087292511	41
303	13815	1.080087292511	49
303	14784	1.085087292511	38
303	15436	1.090087292511	40
303	15628	1.095087292511	9
303	15629	1.100087292511	0
303	16203	1.121169604522	56
303	16204	1.126169604522	0
303	16445	1.137703311467	17
303	16528	1.142703311467	0
303	16731	1.149559137791	27
303	16732	1.154559137791	0
303	23166	43.505	1
303	24774	43.51	34
303	26017	43.515	0
303	26947	43.52	0
303	27905	43.525	0
303	28797	43.53	0
303	29682	43.535	0
303	30726	43.54	0
303	34006	43.562510451716	0
303	34713	43.567510451716	0
303	35695	43.573116754756	0
303	36656	43.578116754756	0
303	37716	43.583116754756	0
303	38506	43.588116754756	0
303	39620	43.593116754756	0
303	40617	43.598116754756	0
303	40971	43.603116754756	0
303	43419	43.621559656492	0
303	44271	43.626559656492	0
303	45021	43.631559656492	0
303	45894	43.63993807226	0
303	46752	43.64493807226	0
303	47786	43.64993807226	0
303	48920	43.65493807226	0
303	54431	43.69258822652	0
303	54883	43.69758822652	0
303	56007	43.702642764635	0
303	56741	43.707642764635	0
303	57506	43.712642764635	0
303	58543	43.719685031485	0
303	59098	43.724685031485	0
303	59773	43.729685031485	0
303	60627	43.735706857295	0
303	61090	43.740706857295	0
303	61714	43.745893971231	0
303	62334	43.750893971231	0
303	63280	43.756110377348	0
303	63887	43.761110377348	0
303	64664	43.766110377348	0
303	65008	43.771110377348	0
303	65769	43.776732659064	0
303	66579	43.781732659064	0
303	67112	43.786732659064	0
303	68130	43.791732659064	0
303	69109	43.810981057567	0
303	69643	43.815981057567	0
303	70618	43.824143023004	0
303	71399	43.829143023004	0
303	71850	43.834143023004	0
303	72119	43.839143023004	0
303	72389	43.844485008183	0
303	72977	43.849485008183	0
303	73776	43.858519663205	0
303	74274	43.863519663205	0
303	74279	43.868519663205	0
303	74614	43.876422456566	0
303	74699	43.881422456566	0
303	75069	43.887318967575	0
303	75352	43.892318967575	0
303	75865	43.897318967575	0
303	75951	43.902318967575	0
303	77252	43.933664022604	0
303	77601	43.938664022604	0
303	77969	43.946618687098	0
303	78317	43.951618687098	0
303	78685	43.97089223982	0
303	78686	43.97589223982	0
303	79051	43.997988943541	0
303	79199	44.002988943541	0
303	79534	44.505	25
303	80682	44.51	0
303	81424	44.515	0
303	82130	44.52	0
303	82782	44.525	0
303	83305	44.53	0
303	84280	44.535	0
303	84732	44.54	0
303	85537	44.545644825146	0
303	86001	44.550644825146	0
303	86715	44.555644825146	0
303	87171	44.560644825146	0
303	88495	44.5706985327	0
303	88940	44.5756985327	0
303	89577	44.5806985327	0
303	89954	44.5856985327	0
303	90661	44.593783224767	0
303	91502	44.598783224767	0
303	91939	44.605068346827	0
303	92386	44.610068346827	0
303	92809	44.615068346827	0
303	93765	44.622303245173	0
303	94236	44.627303245173	0
303	94848	44.632303245173	0
303	95833	44.642411573587	0
303	96176	44.647411573587	0
303	96268	44.652411573587	0
303	96987	44.657853692569	0
303	97610	44.662853692569	0
303	98480	44.667853692569	0
303	98925	44.672853692569	0
303	99710	44.678288602882	0
303	99902	44.683288602882	0
303	100583	44.690492067018	0
303	100669	44.695492067018	0
303	101391	44.700692080633	0
303	102029	44.705692080633	0
303	102554	44.710692080633	0
303	103496	44.715692080633	0
303	104103	44.720692080633	0
303	104271	44.725692080633	0
303	105147	44.735639057579	0
303	105589	44.740639057579	0
303	106244	44.745639057579	0
303	106664	44.750639057579	0
303	107307	44.757274266316	0
303	107308	44.762274266316	0
303	108104	44.775606472093	0
303	108372	44.780606472093	0
303	108713	44.787746625096	0
303	108978	44.792746625096	0
303	109075	44.797746625096	0
303	109518	44.804292088109	0
303	109782	44.809292088109	0
303	109936	45.505	1
303	110025	45.51	0
303	111882	45.515693808814	38
303	113253	45.520693808814	0
303	114318	45.525693808814	0
303	116605	45.536108072288	0
303	117171	45.541108072288	0
303	118136	45.546108072288	0
303	118677	45.551108072288	0
303	119627	45.556108072288	0
303	120354	45.561108072288	0
303	120892	45.566108072288	0
303	122577	45.576208011861	0
303	123411	45.581208011861	0
303	124707	45.587103117017	0
303	125634	45.592103117017	0
303	127063	45.600733535772	0
303	127852	45.605733535772	0
303	130250	45.620609545726	0
303	131107	45.625609545726	0
303	132053	45.630609545726	0
303	133384	45.638596560351	0
303	134031	45.643596560351	0
303	135020	45.648596560351	0
303	135922	45.653596560351	0
303	136869	45.658596560351	0
303	137874	45.665625079674	0
303	138749	45.670625079674	0
303	139757	45.675625079674	0
303	145300	45.713768955805	0
303	146018	45.718768955805	0
303	146920	45.723768955805	0
303	147782	45.728768955805	0
303	148627	45.733768955805	0
303	150802	45.746508004746	0
303	151679	45.751508004746	0
303	152061	45.756508004746	0
303	152770	45.761508004746	0
303	153815	45.769447666392	0
303	154307	45.774447666392	0
303	155135	45.779447666392	0
303	155767	45.784447666392	0
303	156568	45.789447666392	0
303	157669	45.794447666392	0
303	158061	45.799447666392	0
303	158518	45.804447666392	0
303	159141	45.809447666392	0
303	159668	45.814447666392	0
303	160482	45.822100871266	0
303	160945	45.827100871266	0
303	162129	45.839592265189	0
303	162563	45.844592265189	0
303	162943	45.849592265189	0
303	163251	45.854592265189	0
303	163669	45.859592265189	0
303	164295	45.873929682833	0
303	164301	45.878929682833	0
303	164749	45.883929682833	0
303	165101	45.888929682833	0
303	165671	45.893929682833	0
303	166147	45.898929682833	0
303	166148	45.903929682833	0
303	166526	45.913900559485	0
303	166527	45.918900559485	0
303	166984	45.935437463924	0
303	167337	45.940437463924	0
303	167609	45.945437463924	0
303	167769	46.505	1
303	168213	46.51	28
303	169543	46.515	0
303	170691	46.52	0
303	171344	46.525	0
303	171797	46.53	0
303	173475	46.54123474463	0
303	174382	46.54623474463	0
303	174844	46.55123474463	0
303	175630	46.55623474463	0
303	176608	46.56123474463	0
303	177413	46.56623474463	0
303	178119	46.57123474463	0
303	179134	46.57623474463	0
303	180608	46.586226859041	0
303	181500	46.591226859041	0
303	182278	46.596226859041	0
303	183249	46.601226859041	0
303	184558	46.609709819921	0
303	185034	46.614709819921	0
303	186861	46.628430185356	0
303	187832	46.633430185356	0
303	188639	46.638430185356	0
303	189448	46.643430185356	0
303	190171	46.648430185356	0
303	191027	46.653430185356	0
303	191823	46.658430185356	0
303	192795	46.663430185356	0
303	193448	46.668430185356	0
303	194211	46.673430185356	0
303	194563	46.678430185356	0
303	195553	46.685244409816	0
303	196125	46.690244409816	0
303	197060	46.695244409816	0
303	197862	46.700244409816	0
303	198422	46.705244409816	0
303	198801	46.710244409816	0
303	199531	46.715244409816	0
303	200287	46.720244409816	0
303	200976	46.725244409816	0
303	201328	46.730244409816	0
303	201518	46.742544755796	0
303	202103	46.747544755796	0
303	202397	46.752544755796	0
303	202936	46.757544755796	0
303	203373	46.762544755796	0
303	203733	46.767544755796	0
303	204415	46.772544755796	0
303	204516	46.777544755796	0
303	205048	46.785352053949	0
303	205576	46.790352053949	0
303	206970	46.807440900254	0
303	207335	46.812440900254	0
303	207346	46.817440900254	0
303	207859	46.822440900254	0
303	208211	46.827440900254	0
303	208955	46.843456079807	0
303	209301	46.848456079807	0
303	209464	47.505	1
303	209992	47.51	25
303	211292	47.515	0
303	212055	47.52	0
303	212958	47.525	0
303	213942	47.53	0
303	214385	47.535	0
303	215254	47.540071521108	0
303	215906	47.545071521108	0
303	216451	47.550071521108	0
303	216627	47.555071521108	0
303	218820	47.565828121634	0
303	219385	47.570828121634	0
303	219961	47.575828121634	0
303	220679	47.580828121634	0
303	221884	47.585828121634	0
303	222707	47.590828121634	0
303	224688	47.605593100558	0
303	225563	47.610593100558	0
303	226358	47.615593100558	0
303	227014	47.620593100558	0
303	227480	47.625593100558	0
303	228230	47.630593100558	0
303	229180	47.636256175504	0
303	229980	47.641256175504	0
303	230883	47.646568637075	0
303	231238	47.651568637075	0
303	231940	47.656568637075	0
303	232731	47.661568637075	0
303	233008	47.666568637075	0
303	233547	47.671568637075	0
303	234189	47.676568637075	0
303	234282	47.681568637075	0
303	235191	47.686599152235	0
303	235726	47.691599152235	0
303	236703	47.700681026753	0
303	237068	47.705681026753	0
303	237513	47.710681026753	0
303	238140	47.715681026753	0
303	238327	47.720681026753	0
303	239298	47.741340098088	0
303	239952	47.746340098088	0
303	239964	47.751340098088	0
303	241199	47.76771739007	0
303	241555	47.77271739007	0
303	241923	47.779189120843	0
303	242453	47.784189120843	0
303	242922	47.789189120843	0
303	243285	47.794189120843	0
303	243723	47.799189120843	0
303	244077	47.804189120843	0
303	244918	47.81741824487	0
303	245550	47.82241824487	0
303	245985	47.82741824487	0
303	246284	47.83241824487	0
303	246438	48.505	1
303	246448	48.51	0
303	247646	48.51803363889	26
303	248704	48.52303363889	0
303	249626	48.52803363889	0
303	250313	48.53303363889	0
303	251516	48.54161926992	0
303	252324	48.54661926992	0
303	253022	48.55161926992	0
303	253879	48.560138580514	0
303	254076	48.565138580514	0
303	254754	48.571144832023	0
303	255318	48.576144832023	0
303	257225	48.59116715482	0
303	258107	48.59616715482	0
303	258928	48.60116715482	0
303	259559	48.60616715482	0
303	261004	48.615662620833	0
303	261798	48.620662620833	0
303	262514	48.625662620833	0
303	263311	48.630662620833	0
303	266042	48.656950954124	0
303	266503	48.661950954124	0
303	267868	48.675289451627	0
303	268242	48.680289451627	0
303	269261	48.686150951595	0
303	270133	48.691150951595	0
303	270488	48.696150951595	0
303	271399	48.703475884211	0
303	272133	48.708475884211	0
303	273136	48.715821094905	0
303	273950	48.720821094905	0
303	274495	48.725821094905	0
303	275068	48.735030600355	0
303	275316	48.740030600355	0
303	275608	48.745030600355	0
303	276072	48.750030600355	0
303	277245	48.757682962489	0
303	278036	48.762682962489	0
303	278714	48.767682962489	0
303	279335	48.772682962489	0
303	280207	48.777682962489	0
303	280765	48.782682962489	0
303	281293	48.787682962489	0
303	281476	48.792682962489	0
303	281858	48.799061109284	0
303	282509	48.804061109284	0
303	282598	48.809061109284	0
303	283235	48.814061109284	0
303	283318	48.819061109284	0
303	283613	48.824163902542	0
303	283967	48.829163902542	0
303	284219	48.834163902542	0
303	284497	48.839321250433	0
303	284498	48.844321250433	0
303	284861	48.856281383419	0
303	284862	48.861281383419	0
303	285056	49.505	1
303	285263	49.51	10
303	285928	49.515	0
303	286637	49.52	0
303	287436	49.525	0
303	287905	49.53	0
303	288538	49.535	0
303	288905	49.54	0
303	289471	49.545	0
303	289905	49.55	0
303	290540	49.557756668024	0
303	291003	49.562756668024	0
303	291519	49.567756668024	0
303	291609	49.572756668024	0
303	292053	49.577989754545	0
303	292145	49.582989754545	0
303	292853	49.588534164064	0
303	293486	49.593534164064	0
303	294714	49.607057433507	0
303	295158	49.612057433507	0
303	295784	49.617057433507	0
303	296490	49.622057433507	0
303	296840	49.627057433507	0
303	297899	49.637327978397	0
303	297982	49.642327978397	0
303	298640	49.647360001152	0
303	299012	49.652360001152	0
303	299431	49.657360001152	0
303	300194	49.705747740257	0
303	300533	49.710747740257	0
303	300875	49.721329911898	0
303	300876	49.726329911898	0
303	301142	50.505	1
303	301531	50.51	14
303	302809	50.515	0
303	303709	50.52	0
303	304692	50.525	0
303	305122	50.53	0
303	305770	50.535347767686	0
303	306230	50.540347767686	0
303	306882	50.545347767686	0
303	307516	50.550347767686	0
303	308339	50.556036846705	0
303	308892	50.561036846705	0
303	310202	50.566036846705	0
303	311024	50.571036846705	0
303	311909	50.576036846705	0
303	312431	50.581036846705	0
303	312884	50.586036846705	0
303	313430	50.591036846705	0
303	314097	50.596036846705	0
303	314413	50.601920278697	0
303	314804	50.606920278697	0
303	315368	50.613814876866	0
303	315900	50.618814876866	0
303	316265	50.623814876866	0
303	316903	50.631498503874	0
303	317426	50.636498503874	0
303	318789	50.652466965537	0
303	318873	50.657466965537	0
303	319227	50.662479864965	0
303	319601	50.667479864965	0
303	319889	50.672479864965	0
303	320959	50.753995552594	0
303	320960	50.758995552594	0
303	321498	51.505	1
303	321785	51.51	22
303	322880	51.515	0
303	323967	51.52	0
303	325030	51.525	0
303	325793	51.53	0
303	326456	51.535	0
303	327201	51.54	0
303	328682	51.545	0
303	329494	51.55	0
303	330323	51.555	0
303	330941	51.56	0
303	331969	51.565801711337	0
303	332900	51.570801711337	0
303	333265	51.575801711337	0
303	334671	51.587752607937	0
303	335047	51.592752607937	0
303	335780	51.598508199541	0
303	336246	51.603508199541	0
303	336775	51.608508199541	0
303	339024	51.628603027549	0
303	339543	51.633603027549	0
303	340108	51.638603027549	0
303	340848	51.646612192576	0
303	340955	51.651612192576	0
303	341691	51.656695465597	0
303	342327	51.661695465597	0
303	342944	51.666695465597	0
303	343492	51.675928961016	0
303	343946	51.680928961016	0
303	344492	51.685928961016	0
303	344855	51.690928961016	0
303	345605	51.696213831715	0
303	345984	51.701213831715	0
303	346337	51.706213831715	0
303	347174	51.713313852644	0
303	347765	51.718313852644	0
303	348310	51.723313852644	0
303	348791	51.728313852644	0
303	349565	51.733313852644	0
303	349862	51.738777876613	0
303	350237	51.743777876613	0
303	350676	51.748777876613	0
303	350966	51.753777876613	0
303	351495	51.758777876613	0
303	351863	51.767621808878	0
303	352386	51.772621808878	0
303	353758	51.801077717014	0
303	353866	51.806077717014	0
303	354353	52.505	23
303	355270	52.51	0
303	356680	52.515	0
303	357567	52.52	0
303	358400	52.525	0
303	359256	52.53	0
303	360467	52.535	0
303	361124	52.54	0
303	362088	52.545	0
303	362288	52.55	0
303	362766	52.555	0
303	363484	52.56	0
303	364492	52.565	0
303	365269	52.57	0
303	366029	52.575	0
303	367413	52.58	0
303	368274	52.585	0
303	369130	52.59	0
303	370096	52.595	0
303	370744	52.6	0
303	371376	52.605	0
303	372000	52.61	0
303	372844	52.619204624495	0
303	373754	52.624204624495	0
303	374463	52.629204624495	0
303	375006	52.635800827987	0
303	375386	52.640800827987	0
303	375861	52.645800827987	0
303	376648	52.650800827987	0
303	377317	52.656631415078	0
303	377857	52.661631415078	0
303	378309	52.666631415078	0
303	379014	52.671631415078	0
303	379638	52.676631415078	0
303	380540	52.685567477225	0
303	380542	52.690567477225	0
303	380987	52.697522380513	0
303	381515	52.702522380513	0
303	382240	52.707522380513	0
303	382516	52.712522380513	0
303	383509	52.725414975007	0
303	384088	52.730414975007	0
303	385040	52.735414975007	0
303	385784	52.740414975007	0
303	386160	52.746343436689	0
303	386341	52.751343436689	0
303	388032	52.770695696338	0
303	388479	52.775695696338	0
303	389049	52.780695696338	0
303	389050	52.785695696338	0
303	389688	52.804566566023	0
303	389801	52.809566566023	0
303	390164	52.8302623337	0
303	390165	52.8352623337	0
303	390344	53.505	1
303	390351	53.51	0
303	390937	53.518379512748	13
303	391865	53.523379512748	0
303	392498	53.528379512748	0
303	393095	53.533379512748	0
303	394128	53.538379512748	0
303	395034	53.543379512748	0
303	396023	53.548379512748	0
303	396590	53.553379512748	0
303	397327	53.558379512748	0
303	397909	53.563379512748	0
303	398750	53.568379512748	0
303	399299	53.573379512748	0
303	400274	53.578379512748	0
303	400588	53.583379512748	0
303	400935	53.588379512748	0
303	401509	53.600606909639	0
303	401780	53.605606909639	0
303	402365	53.610606909639	0
303	402557	53.615606909639	0
303	403109	53.620606909639	0
303	403758	53.625606909639	0
303	405217	53.646961711873	0
303	405384	53.651961711873	0
303	406218	53.657861424207	0
303	406576	53.662861424207	0
303	407681	53.67894703968	0
303	408180	53.68394703968	0
303	408355	53.68894703968	0
303	409098	53.712299042885	0
303	409099	53.717299042885	0
303	409460	53.739681536681	0
303	409461	53.744681536681	0
303	410202	53.788389449228	0
303	410203	53.793389449228	0
303	410383	54.505	1
303	410472	54.51	0
303	411427	54.516367402536	21
303	412369	54.521367402536	0
303	413722	54.526367402536	0
303	414019	54.531367402536	0
303	414710	54.536367402536	0
303	415875	54.541367402536	0
303	416912	54.546367402536	0
303	417953	54.551367402536	0
303	418862	54.556367402536	0
303	420095	54.562987348252	0
303	420829	54.567987348252	0
303	421823	54.572987348252	0
303	422113	54.577987348252	0
303	423114	54.582987348252	0
303	423963	54.587987348252	0
303	424654	54.592987348252	0
303	425446	54.597987348252	0
303	426136	54.602987348252	0
303	426971	54.610482880987	0
303	427687	54.615482880987	0
303	428431	54.620482880987	0
303	428894	54.625482880987	0
303	429634	54.632922368488	0
303	430180	54.637922368488	0
303	431135	54.643058190202	0
303	432020	54.648058190202	0
303	432669	54.656607050682	0
303	433363	54.661607050682	0
303	434406	54.671482867335	0
303	434589	54.676482867335	0
303	435272	54.692427428924	0
303	435993	54.697427428924	0
303	436669	54.702427428924	0
303	437412	54.707427428924	0
303	438179	54.72310537333	0
303	438720	54.72810537333	0
303	439420	54.73310537333	0
303	440151	54.73810537333	0
303	440632	54.74310537333	0
303	440921	54.74810537333	0
303	441010	54.75310537333	0
303	441697	54.758236168387	0
303	442068	54.763236168387	0
303	442443	54.768236168387	0
303	442814	54.773236168387	0
303	443080	54.778236168387	0
303	443189	54.783236168387	0
303	443563	54.81047484956	0
303	443564	54.81547484956	0
303	446462	70.00501	0
303	446829	70.01001	0
303	447197	70.01501	0
303	447589	70.02001	0
303	447590	70.02501	0
303	448121	71.00501	0
303	448509	71.01001	0
303	448891	71.01501	0
303	449433	71.02001	0
303	449434	71.02501	0
303	450187	71.047124070632	0
303	450770	71.052124070632	0
303	450956	71.057124070632	0
303	451495	72.00501	0
303	451890	72.01001	0
303	452184	72.01501	0
303	452655	72.02001	0
303	453123	72.02501	0
303	454049	72.03001	0
303	454344	72.03501	0
303	454526	72.04001	0
303	455048	73.00501	0
303	455049	73.01001	0
303	455449	73.020716029974	0
303	455854	73.025716029974	0
303	456244	73.030716029974	0
303	456623	73.035716029974	0
303	457078	73.040716029974	0
303	457658	73.045716029974	0
303	458421	73.050716029974	0
303	458517	73.055716029974	0
303	459100	73.074772129864	0
303	459501	73.079772129864	0
303	459885	73.084772129864	0
303	460272	73.089772129864	0
303	460643	73.094772129864	0
303	550287	670.00501	0
303	550749	670.01001	0
303	551120	670.01501	0
303	551509	670.02001	0
303	551510	670.02501	0
303	552041	671.00501	0
303	552334	671.01001	0
303	552692	671.01501	0
303	553353	671.02001	0
303	553354	671.02501	0
303	554119	671.047444070632	0
303	554202	671.052444070632	0
303	554872	671.057892100374	0
303	554873	671.062892100374	0
303	555415	672.00501	0
303	555892	672.01001	0
303	556196	672.01501	0
303	556569	672.02001	0
303	556949	672.02501	0
303	557413	672.03001	0
303	558075	672.03501	0
303	558447	672.04001	0
303	558448	672.04501	0
303	558782	673.00501	0
303	559367	673.01001	0
303	559662	673.01501	0
303	560165	673.02001	0
303	560541	673.02501	0
303	560949	673.03001	0
303	561782	673.03501	0
303	562357	673.04001	0
303	562929	673.04501	0
303	563023	673.05001	0
303	563794	673.068372129866	0
303	564181	673.073372129866	0
303	564182	673.078372129866	0
303	653924	1270.00501	0
303	654291	1270.01001	0
303	654738	1270.01501	0
303	655048	1270.02001	0
303	655049	1270.02501	0
303	655395	1271.00501	0
303	655663	1271.01001	0
303	656344	1271.015286028891	0
303	656724	1271.020286028891	0
303	657273	1271.025286028891	0
303	657658	1271.030286028891	0
303	657659	1271.035286028891	0
303	658307	1271.052524100374	0
303	658413	1271.057524100374	0
303	658952	1272.00501	0
303	659350	1272.01001	0
303	659739	1272.01501	0
303	660118	1272.02001	0
303	660486	1272.02501	0
303	660865	1272.03001	0
303	661312	1272.03501	0
303	661694	1272.04001	0
303	661984	1272.04501	0
303	661985	1272.05001	0
303	662507	1273.00501	0
303	662910	1273.01001	0
303	663312	1273.01501	0
303	663708	1273.02001	0
303	664164	1273.02501	0
303	664924	1273.03001	0
303	665794	1273.03501	0
303	666188	1273.04001	0
303	666548	1273.04501	0
303	666549	1273.05001	0
303	667404	1273.067660129866	0
303	667802	1273.072660129866	0
303	668104	1273.077660129866	0
303	668105	1273.082660129866	0
303	757917	1870.00501	0
303	758287	1870.01001	0
303	758658	1870.01501	0
303	759044	1870.02001	0
303	759045	1870.02501	0
303	759391	1871.00501	0
303	759964	1871.01001	0
303	760343	1871.01501	0
303	760898	1871.02001	0
303	760899	1871.02501	0
303	761673	1871.047444070631	0
303	762055	1871.052444070631	0
303	762434	1871.057444070631	0
303	762435	1871.062444070631	0
303	763157	1872.00501	0
303	763755	1872.01001	0
303	764141	1872.01501	0
303	764224	1872.02001	0
303	764894	1872.025756057838	0
303	764977	1872.030756057838	0
303	765551	1872.03687609798	0
303	765920	1872.04187609798	0
303	766396	1872.04687609798	0
303	766397	1872.05187609798	0
303	766919	1873.00501	0
303	767322	1873.01001	0
303	767721	1873.01501	0
303	768114	1873.02001	0
303	768493	1873.02501	0
303	769335	1873.03001	0
303	770203	1873.03501	0
303	770673	1873.04001	0
303	770954	1873.04501	0
303	770955	1873.05001	0
303	771729	1873.062684129866	0
303	772113	1873.067684129866	0
303	772114	1873.072684129866	0
303	861853	2470.00501	0
303	862223	2470.01001	0
303	862591	2470.01501	0
303	862980	2470.02001	0
303	862981	2470.02501	0
303	863407	2471.00501	0
303	863900	2471.01001	0
303	864279	2471.01501	0
303	864737	2471.02001	0
303	865412	2471.02501	0
303	865793	2471.03001	0
303	865794	2471.03501	0
303	866183	2471.049436056567	0
303	866184	2471.054436056567	0
303	866723	2472.00501	0
303	867121	2472.01001	0
303	867507	2472.01501	0
303	867889	2472.02001	0
303	868260	2472.02501	0
303	868839	2472.03001	0
303	869385	2472.03501	0
303	869757	2472.04001	0
303	869758	2472.04501	0
303	870280	2473.00501	0
303	870680	2473.01001	0
303	871082	2473.01501	0
303	871478	2473.02001	0
303	871857	2473.02501	0
303	872490	2473.03001	0
303	872795	2473.03501	0
303	872796	2473.04001	0
303	873552	2473.055364100283	0
303	873951	2473.060364100283	0
303	874521	2473.065364100283	0
303	874881	2473.070364100283	0
303	874882	2473.075364100283	0
303	875664	2473.091940145461	0
303	875665	2473.096940145461	0
303	965404	3070.00501	0
303	965774	3070.01001	0
303	966221	3070.01501	0