version 2
run AODVScenario_1f-27-20121121-14:49:09-7092
attr configname AODVScenario_1f
attr datetime 20121121-14:49:09
attr experiment AODVScenario_1f
attr inifile AODV.ini
attr iterationvars $numNodes=77
attr iterationvars2 "$numNodes=77, $repetition=0"
attr measurement $numNodes=77
attr network csma802154net
attr numNodes 77
attr processid 7092
attr repetition 0
attr replication #0
attr resultdir results
attr runnumber 27
attr seedset 27

vector 319  csma802154net.dataCentricNetworkMan  RREQPacketFrequency  ETV
vector 320  csma802154net.dataCentricNetworkMan  RERRPacketFrequency  ETV
vector 321  csma802154net.dataCentricNetworkMan  DiscoveryPacketFrequency  ETV
vector 322  csma802154net.dataCentricNetworkMan  RegisterPacketFrequency  ETV
vector 323  csma802154net.dataCentricNetworkMan  RReplyPacketFrequency  ETV
vector 324  csma802154net.dataCentricNetworkMan  AODVDataPacketFrequency  ETV
vector 331  csma802154net.dataCentricNetworkMan  pendingRegistrationVector  ETV
vector 330  csma802154net.dataCentricNetworkMan  pendingRREQVector  ETV
vector 325  csma802154net.dataCentricNetworkMan  AODVDataLineBreakVector  ETV
vector 328  csma802154net.dataCentricNetworkMan  PendingDataPacketsVector  ETV
vector 333  csma802154net.fixhost[1].udpApp  "End-to-end delay"  ETV
vector 316  csma802154net.dataCentricNetworkMan  dataPacketE2EDelay  ETV
vector 338  csma802154net.fixhost[6].udpApp  "End-to-end delay"  ETV
vector 339  csma802154net.fixhost[7].udpApp  "End-to-end delay"  ETV
vector 336  csma802154net.fixhost[4].udpApp  "End-to-end delay"  ETV
vector 345  csma802154net.fixhost[13].udpApp  "End-to-end delay"  ETV
vector 347  csma802154net.fixhost[15].udpApp  "End-to-end delay"  ETV
vector 337  csma802154net.fixhost[5].udpApp  "End-to-end delay"  ETV
vector 340  csma802154net.fixhost[8].udpApp  "End-to-end delay"  ETV
vector 342  csma802154net.fixhost[10].udpApp  "End-to-end delay"  ETV
vector 344  csma802154net.fixhost[12].udpApp  "End-to-end delay"  ETV
vector 354  csma802154net.fixhost[22].udpApp  "End-to-end delay"  ETV
316	535934	70.008676027149	0.008676027149
316	536299	70.013756052235	0.013756052235
316	536671	70.017876081705	0.017876081705
316	539015	71.020076058282	0.020076058282
316	540179	71.04777206774	0.04777206774
316	540583	71.087484088453	0.087484088453
316	543495	72.026436074637	0.026436074637
316	544295	72.035604104994	0.035604104994
316	547484	73.034076093926	0.034076093926
316	548962	73.060172106637	0.060172106637
316	550285	73.10226015015	0.10226015015
316	645320	670.01155602715	0.01155602715
316	645684	670.015036052235	0.015036052235
316	646056	670.019796081706	0.019796081706
316	648626	671.023524058282	0.023524058282
316	649408	671.029212067741	0.029212067741
316	649811	671.032372088454	0.032372088454
316	652528	672.025156074638	0.025156074638
316	653702	672.055444104994	0.055444104994
316	656877	673.028636093926	0.028636093926
316	658095	673.053844106637	0.053844106637
316	659692	673.067452150149	0.067452150149
316	754726	1270.00931602715	0.00931602715
316	755091	1270.013436052236	0.013436052236
316	755463	1270.018196081707	0.018196081707
316	758393	1271.026404067741	0.026404067741
316	758819	1271.029604058282	0.029604058282
316	759218	1271.032692088452	0.032692088452
316	761860	1272.025796074638	0.025796074638
316	762935	1272.034644104993	0.034644104993
316	767303	1273.040364125236	0.040364125236
316	768120	1273.046444131563	0.046444131563
316	768947	1273.06048415015	0.06048415015
316	864058	1870.00899602715	0.00899602715
316	864423	1870.014396052236	0.014396052236
316	864795	1870.019156081707	0.019156081707
316	867449	1871.023844058282	0.023844058282
316	867940	1871.02889206774	0.02889206774
316	868719	1871.052852088454	0.052852088454
316	872043	1872.033972074637	0.033972074637
316	872454	1872.036564104995	0.036564104995
316	875643	1873.030876093925	0.030876093925
316	877212	1873.057292106637	0.057292106637
316	878440	1873.06994015015	0.06994015015
316	973475	2470.01219602715	0.01219602715
316	973840	2470.017276052236	0.017276052236
316	974211	2470.021716081706	0.021716081706
316	977093	2471.029564088454	0.029564088454
316	977495	2471.047204067741	0.047204067741
316	978329	2471.060820058282	0.060820058282
316	980976	2472.025476074638	0.025476074638
316	982052	2472.037524104995	0.037524104995
316	985226	2473.033116093925	0.033116093925
316	987591	2473.06336415015	0.06336415015
316	987995	2473.073788106637	0.073788106637
316	1083436	3070.00739602715	0.00739602715
316	1083801	3070.012476052236	0.012476052236
316	1084173	3070.016916081707	0.016916081707
316	1086442	3071.021676058282	0.021676058282
316	1087318	3071.049692067741	0.049692067741
316	1088097	3071.063340088453	0.063340088453
316	1091023	3072.028036074638	0.028036074638
316	1091820	3072.034004104995	0.034004104995
316	1095683	3073.037596093926	0.037596093926
316	1097011	3073.051204150149	0.051204150149
316	1097836	3073.068740106637	0.068740106637
316	1192958	3670.00739602715	0.00739602715
316	1193323	3670.011516052236	0.011516052236
316	1193695	3670.015636081707	0.015636081707
316	1195881	3671.021676058282	0.021676058282
316	1196664	3671.02928406774	0.02928406774
316	1198020	3671.061420088451	0.061420088451
316	1200949	3672.031484074638	0.031484074638
316	1201751	3672.040084104995	0.040084104995
316	1206041	3673.037164125235	0.037164125235
316	1206549	3673.042852137756	0.042852137756
316	1207779	3673.072180150149	0.072180150149
316	1302814	4270.01091602715	0.01091602715
316	1303179	4270.015996052236	0.015996052236
316	1303550	4270.019796081706	0.019796081706
316	1305896	4271.02263605828	0.02263605828
316	1306845	4271.045924067738	0.045924067738
316	1307627	4271.073652088451	0.073652088451
316	1310346	4272.027396074636	0.027396074636
316	1311520	4272.058004104993	0.058004104993
316	1315769	4273.035956125235	0.035956125235
316	1316695	4273.048892150149	0.048892150149
316	1317520	4273.067172131561	0.067172131561
316	1412565	4870.00771602715	0.00771602715
316	1412930	4870.011836052236	0.011836052236
316	1413302	4870.015316081707	0.015316081707
316	1415957	4871.023204058282	0.023204058282
316	1416448	4871.027932067741	0.027932067741
316	1417227	4871.052532088454	0.052532088454
316	1420154	4872.026756074638	0.026756074638
316	1421137	4872.058252104994	0.058252104994
316	1424921	4873.034996125236	0.034996125236
316	1426321	4873.04480415015	0.04480415015
316	1427547	4873.069660131563	0.069660131563
316	1522669	5470.009956027149	0.009956027149
316	1523035	5470.015036052235	0.015036052235
316	1523407	5470.020116081706	0.020116081706
316	1526125	5471.025516067739	0.025516067739
316	1526552	5471.03305205828	0.03305205828
316	1527327	5471.056692088452	0.056692088452
316	1530044	5472.025476074637	0.025476074637
316	1531217	5472.055444104995	0.055444104995
316	1534406	5473.031516093926	0.031516093926
316	1536172	5473.064260106637	0.064260106637
316	1537405	5473.09930815015	0.09930815015
316	1632439	6070.006756027149	0.006756027149
316	1632804	6070.011516052235	0.011516052235
316	1633176	6070.016916081706	0.016916081706
316	1635323	6071.02231606774	0.02231606774
316	1636536	6071.031132058281	0.031132058281
316	1636931	6071.033652088453	0.033652088453
316	1640246	6072.034004104992	0.034004104992
316	1640650	6072.038700074635	0.038700074635
316	1644850	6073.045556125236	0.045556125236
316	1647051	6073.100452131563	0.100452131563
316	1648280	6073.12522815015	0.12522815015
316	1743314	6670.009636027149	0.009636027149
316	1743679	6670.014076052234	0.014076052234
316	1744051	6670.018836081704	0.018836081704
316	1746617	6671.021356058282	0.021356058282
316	1747400	6671.03042006774	0.03042006774
316	1747802	6671.033084088454	0.033084088454
316	1751060	6672.026436074637	0.026436074637
316	1751474	6672.033116104995	0.033116104995
316	1757191	6673.036524125233	0.036524125233
316	1758006	6673.045124150146	0.045124150146
316	1758411	6673.061092137753	0.061092137753
316	1853533	7270.00899602715	0.00899602715
316	1853898	7270.013116052236	0.013116052236
316	1854270	7270.018516081707	0.018516081707
316	1856925	7271.023524058281	0.023524058281
316	1857413	7271.02608406774	0.02608406774
316	1858192	7271.053492088453	0.053492088453
316	1861124	7272.030524074638	0.030524074638
316	1862107	7272.061452104993	0.061452104993
316	1866095	7273.035316125234	0.035316125234
316	1868045	7273.066532131559	0.066532131559
316	1868872	7273.088252150148	0.088252150148
319	701	1.005	1
319	820	1.01	14
319	1325	1.015	23
319	2202	1.02	46
319	3473	1.025	90
319	5282	1.03	73
319	6689	1.035	46
319	8451	1.04	73
319	10191	1.045	66
319	11255	1.05	48
319	11737	1.055	47
319	12290	1.06	45
319	12863	1.065	67
319	13392	1.07	39
319	13393	1.075	0
319	14021	1.087623148558	43
319	14555	1.092623148558	61
319	14888	1.097623148558	35
319	14892	1.102623148558	0
319	15152	1.110297018105	21
319	15153	1.115297018105	0
319	15818	1.132723007789	70
319	15819	1.137723007789	0
319	16085	1.146545018105	21
319	16446	1.151545018105	24
319	16688	1.156545018105	34
319	16689	1.161545018105	0
319	16987	1.173126697998	28
319	16988	1.178126697998	0
319	23691	43.505	1
319	23961	43.51	12
319	24952	43.515	0
319	25898	43.52	0
319	26443	43.525	0
319	26531	43.53	0
319	27265	43.536467746815	0
319	28053	43.541467746815	0
319	28588	43.546467746815	0
319	29220	43.551467746815	0
319	29579	43.556467746815	0
319	29932	43.561467746815	0
319	30389	43.566467746815	0
319	31114	43.571467746815	0
319	31623	43.576467746815	0
319	32048	43.581467746815	0
319	32241	43.588331444055	0
319	32244	43.593331444055	0
319	33403	43.609099462557	0
319	33750	43.614099462557	0
319	34032	43.619099462557	0
319	34726	43.630930682685	0
319	34730	43.635930682685	0
319	35072	43.648318878412	0
319	35073	43.653318878412	0
319	35438	43.679843175644	0
319	35439	43.684843175644	0
319	35796	43.693147207037	0
319	35797	43.698147207037	0
319	36309	44.505	1
319	36402	44.51	0
319	37700	44.516315770301	19
319	38725	44.521315770301	0
319	39434	44.526315770301	0
319	39804	44.531315770301	0
319	39806	44.536315770301	0
319	41459	44.548328781397	0
319	42231	44.553328781397	0
319	42614	44.558328781397	0
319	43775	44.569214067688	0
319	44345	44.574214067688	0
319	44796	44.579214067688	0
319	45176	44.584214067688	0
319	45733	44.589214067688	0
319	46968	44.598512792895	0
319	47929	44.603512792895	0
319	49276	44.618526382603	0
319	49908	44.623526382603	0
319	51963	44.645736802028	0
319	52885	44.650736802028	0
319	55069	44.672700604634	0
319	55443	44.677700604634	0
319	56027	44.682700604634	0
319	56831	44.693042589495	0
319	57387	44.698042589495	0
319	57564	44.703042589495	0
319	58281	44.708602334292	0
319	58736	44.713602334292	0
319	59182	44.719461235169	0
319	59361	44.724461235169	0
319	60033	44.731846792895	0
319	60753	44.736846792895	0
319	61386	44.742572527546	0
319	61931	44.747572527546	0
319	62442	44.752572527546	0
319	62896	44.757572527546	0
319	63818	44.762572527546	0
319	64185	44.767572527546	0
319	65153	44.780277256387	0
319	65333	44.785277256387	0
319	65781	44.790277256387	0
319	66412	44.795277256387	0
319	67213	44.800277256387	0
319	67493	44.805713295795	0
319	67498	44.810713295795	0
319	68677	44.822042492401	0
319	69161	44.827042492401	0
319	69342	44.832042492401	0
319	70065	44.860044348626	0
319	70066	44.865044348626	0
319	70813	44.958206843735	0
319	70814	44.963206843735	0
319	71303	45.505	26
319	72679	45.51	0
319	73675	45.515	0
319	74512	45.52	0
319	75197	45.525916757312	0
319	75671	45.530916757312	0
319	76442	45.535916757312	0
319	77189	45.540916757312	0
319	77901	45.545916757312	0
319	78727	45.551915073026	0
319	79738	45.556915073026	0
319	80391	45.561915073026	0
319	81894	45.572246654049	0
319	82546	45.577246654049	0
319	83285	45.583551785461	0
319	84115	45.588551785461	0
319	85835	45.598350678119	0
319	86483	45.603350678119	0
319	87370	45.608350678119	0
319	87927	45.613350678119	0
319	90603	45.635511045023	0
319	91269	45.640511045023	0
319	91824	45.645511045023	0
319	92928	45.651526108674	0
319	93656	45.656526108674	0
319	94012	45.661526108674	0
319	95875	45.676167059239	0
319	96501	45.681167059239	0
319	97243	45.68639030045	0
319	98212	45.69139030045	0
319	98673	45.69639030045	0
319	99708	45.70139030045	0
319	100433	45.70639030045	0
319	101087	45.71139030045	0
319	101813	45.71639030045	0
319	102271	45.72139030045	0
319	102735	45.72639030045	0
319	103369	45.73139030045	0
319	104213	45.740281073024	0
319	104827	45.745281073024	0
319	105646	45.750541731297	0
319	106021	45.755541731297	0
319	106826	45.760541731297	0
319	107374	45.769111061664	0
319	107740	45.774111061664	0
319	108317	45.779111061664	0
319	108414	45.784111061664	0
319	108796	45.789111061664	0
319	108887	45.794111061664	0
319	109735	45.800595318106	0
319	110174	45.805595318106	0
319	110714	45.826407323937	0
319	111200	45.831407323937	0
319	111731	45.836407323937	0
319	112111	45.870471696626	0
319	112112	45.875471696626	0
319	112490	45.901055723188	0
319	112491	45.906055723188	0
319	112653	46.505	1
319	112663	46.51	0
319	114305	46.5180039829	31
319	115579	46.5230039829	0
319	117214	46.531165789655	0
319	118176	46.536165789655	0
319	118938	46.541165789655	0
319	120608	46.546165789655	0
319	121548	46.551165789655	0
319	122047	46.556165789655	0
319	123105	46.561165789655	0
319	123883	46.566165789655	0
319	124940	46.571165789655	0
319	125622	46.576165789655	0
319	126625	46.581165789655	0
319	127776	46.586165789655	0
319	128414	46.591165789655	0
319	129530	46.597882648214	0
319	130314	46.602882648214	0
319	130966	46.607882648214	0
319	131801	46.612882648214	0
319	132642	46.617882648214	0
319	134056	46.62799348844	0
319	135014	46.63299348844	0
319	135973	46.63799348844	0
319	136867	46.64299348844	0
319	137858	46.64799348844	0
319	139058	46.657064604042	0
319	139561	46.662064604042	0
319	139944	46.667064604042	0
319	140985	46.672293248836	0
319	141858	46.677293248836	0
319	142725	46.682293248836	0
319	143302	46.687293248836	0
319	144171	46.695762673925	0
319	144922	46.700762673925	0
319	145975	46.705762673925	0
319	146683	46.710762673925	0
319	147633	46.718260204061	0
319	148389	46.723260204061	0
319	149184	46.728260204061	0
319	149952	46.733260204061	0
319	150443	46.738260204061	0
319	151398	46.744907616671	0
319	152415	46.749907616671	0
319	152916	46.754907616671	0
319	153681	46.759907616671	0
319	154945	46.766549835131	0
319	155611	46.771549835131	0
319	156355	46.776549835131	0
319	157676	46.781549835131	0
319	158046	46.786549835131	0
319	158433	46.791549835131	0
319	159167	46.796549835131	0
319	159646	46.801549835131	0
319	160843	46.806549835131	0
319	161856	46.811549835131	0
319	162050	46.816549835131	0
319	163004	46.824725773355	0
319	163448	46.829725773355	0
319	163821	46.834773830164	0
319	164602	46.839773830164	0
319	165136	46.844773830164	0
319	165590	46.850745317031	0
319	165973	46.855745317031	0
319	167131	46.870463039814	0
319	167219	46.875463039814	0
319	167613	46.880463039814	0
319	168000	46.885463039814	0
319	168293	46.890463039814	0
319	168839	47.505	1
319	168852	47.51	0
319	170450	47.517079508884	36
319	171454	47.522079508884	0
319	172266	47.527079508884	0
319	173154	47.532079508884	0
319	174109	47.537079508884	0
319	175081	47.542079508884	0
319	176171	47.547079508884	0
319	178077	47.558639401606	0
319	178945	47.563639401606	0
319	179717	47.568639401606	0
319	180982	47.573639401606	0
319	182034	47.578639401606	0
319	182879	47.583639401606	0
319	184851	47.596908313549	0
319	185614	47.601908313549	0
319	186630	47.606908313549	0
319	187603	47.611908313549	0
319	188434	47.616908313549	0
319	189208	47.621908313549	0
319	190675	47.631671313355	0
319	191521	47.636671313355	0
319	192862	47.642860338067	0
319	193356	47.647860338067	0
319	198065	47.680399657109	0
319	199252	47.685399657109	0
319	200517	47.694211946579	0
319	201427	47.699211946579	0
319	202266	47.704211946579	0
319	203094	47.709211946579	0
319	203575	47.714211946579	0
319	204185	47.719211946579	0
319	204946	47.724211946579	0
319	207660	47.740302604851	0
319	208460	47.745302604851	0
319	209419	47.750376454209	0
319	210186	47.755376454209	0
319	211243	47.762697920103	0
319	212072	47.767697920103	0
319	213029	47.775041354959	0
319	213774	47.780041354959	0
319	214325	47.785041354959	0
319	215103	47.790258903815	0
319	215785	47.795258903815	0
319	216501	47.800258903815	0
319	217090	47.805258903815	0
319	217565	47.810258903815	0
319	218304	47.815258903815	0
319	219162	47.820258903815	0
319	220210	47.827100923475	0
319	220863	47.832100923475	0
319	221736	47.841349047213	0
319	222471	47.846349047213	0
319	223429	47.851349047213	0
319	224283	47.856349047213	0
319	225083	47.861349047213	0
319	225840	47.866349047213	0
319	228258	47.881014621464	0
319	228896	47.886014621464	0
319	229749	47.896222933015	0
319	230459	47.901222933015	0
319	231216	47.906222933015	0
319	231903	47.911222933015	0
319	232856	47.918059896868	0
319	233164	47.923059896868	0
319	233939	47.930984463083	0
319	234533	47.935984463083	0
319	235091	47.943445028397	0
319	235768	47.948445028397	0
319	235857	47.953445028397	0
319	235948	47.958445028397	0
319	236717	47.969563911088	0
319	237025	47.974563911088	0
319	237409	47.979563911088	0
319	237571	48.505	1
319	237664	48.51	0
319	239170	48.51519028211	30
319	240074	48.52019028211	0
319	241691	48.52719117741	0
319	242485	48.53219117741	0
319	243478	48.539962718193	0
319	244338	48.544962718193	0
319	245206	48.549962718193	0
319	245873	48.554962718193	0
319	247194	48.565949685259	0
319	247870	48.570949685259	0
319	248774	48.577300906419	0
319	249498	48.582300906419	0
319	250141	48.587300906419	0
319	251024	48.592822299485	0
319	251684	48.597822299485	0
319	252331	48.602822299485	0
319	253795	48.614241301735	0
319	254416	48.619241301735	0
319	255260	48.624241301735	0
319	256091	48.629241301735	0
319	256909	48.634241301735	0
319	257552	48.639241301735	0
319	259150	48.652135244378	0
319	259957	48.657135244378	0
319	260928	48.662135244378	0
319	261609	48.667135244378	0
319	262877	48.677587538728	0
319	263384	48.682587538728	0
319	263858	48.687587538728	0
319	264710	48.692587538728	0
319	265006	48.697587538728	0
319	265970	48.703918125345	0
319	266628	48.708918125345	0
319	267186	48.713918125345	0
319	267845	48.718918125345	0
319	268805	48.72676293989	0
319	269303	48.73176293989	0
319	270159	48.73676293989	0
319	270769	48.74176293989	0
319	271460	48.74676293989	0
319	271864	48.75176293989	0
319	272633	48.75676293989	0
319	273184	48.76176293989	0
319	273582	48.770085539081	0
319	273953	48.775085539081	0
319	274445	48.783272895216	0
319	274997	48.788272895216	0
319	275657	48.793272895216	0
319	276040	48.798272895216	0
319	276584	48.806301087321	0
319	276768	48.811301087321	0
319	277156	48.816301087321	0
319	277434	48.821301087321	0
319	277752	48.826548535341	0
319	278123	48.831548535341	0
319	278594	48.838070023256	0
319	278894	48.843070023256	0
319	278895	48.848070023256	0
319	279643	48.861997102684	0
319	279926	48.866997102684	0
319	280408	48.884162214378	0
319	280409	48.889162214378	0
319	280809	48.911226239885	0
319	280810	48.916226239885	0
319	280996	49.505	1
319	281932	49.51	40
319	283949	49.515	0
319	285294	49.52	0
319	286486	49.525	0
319	287340	49.53	20
319	288478	49.535	21
319	289905	49.54	11
319	291702	49.545	17
319	292870	49.55	15
319	293978	49.555	34
319	295473	49.56	36
319	296730	49.565	29
319	298199	49.57	16
319	299595	49.575	19
319	300719	49.58	18
319	301929	49.585	17
319	302908	49.59	0
319	304286	49.595	40
319	305244	49.6	6
319	306470	49.605	24
319	307428	49.61	0
319	308754	49.615	20
319	309729	49.62	4
319	310715	49.625	0
319	312220	49.63	0
319	313129	49.635	0
319	315745	49.64880527309	0
319	316323	49.65380527309	0
319	317246	49.659020051105	15
319	318370	49.664020051105	0
319	319509	49.670790057654	0
319	320178	49.675790057654	0
319	321301	49.680790057654	0
319	322054	49.685790057654	0
319	323268	49.690790057654	0
319	324018	49.695790057654	0
319	327182	49.715310747726	23
319	327951	49.720310747726	0
319	328730	49.725310747726	0
319	330068	49.730310747726	0
319	330907	49.735310747726	0
319	331589	49.740310747726	0
319	332545	49.745474512809	0
319	333135	49.750474512809	0
319	333902	49.755474512809	0
319	334784	49.76238356913	0
319	335758	49.76738356913	0
319	336594	49.77238356913	0
319	337740	49.778094932353	0
319	338576	49.783094932353	0
319	339470	49.791166826722	0
319	340320	49.796166826722	0
319	341104	49.801166826722	0
319	342753	49.808811139931	0
319	343715	49.813811139931	0
319	344531	49.821589195235	0
319	345505	49.826589195235	0
319	346161	49.831589195235	0
319	347024	49.838866116245	0
319	347671	49.843866116245	0
319	348728	49.848866116245	0
319	349299	49.853866116245	0
319	350011	49.858866116245	0
319	350588	49.863866116245	0
319	351075	49.868866116245	0
319	351582	49.873866116245	0
319	352473	49.879285215395	0
319	352869	49.884285215395	0
319	353172	49.889285215395	0
319	353367	49.894285215395	0
319	353656	49.899285215395	0
319	353953	49.904473309715	0
319	353954	49.909473309715	0
319	354790	49.930669183375	0
319	355187	49.935669183375	0
319	355500	49.940669183375	0
319	355504	49.945669183375	0
319	356307	49.958886952408	0
319	356715	49.963886952408	0
319	357119	49.968886952408	0
319	357413	49.973886952408	0
319	357517	49.978886952408	0
319	358073	50.00022954579	0
319	358074	50.00522954579	0
319	358474	50.025023086606	0
319	358475	50.030023086606	0
319	359152	50.051293570427	0
319	359260	50.056293570427	0
319	359742	50.505	1
319	360609	50.51	23
319	361416	50.515	0
319	362242	50.52	0
319	363207	50.525	0
319	364059	50.53	0
319	364728	50.535	0
319	365232	50.54	0
319	366108	50.545	0
319	366859	50.55	0
319	367720	50.555	0
319	368527	50.56	0
319	369298	50.565	0
319	369867	50.57	0
319	370905	50.575	0
319	371574	50.58	0
319	372148	50.585	0
319	373978	50.600473606189	0
319	374754	50.605473606189	0
319	375414	50.610473606189	0
319	375795	50.615473606189	0
319	376269	50.628582320892	0
319	376918	50.633582320892	0
319	377494	50.638582320892	0
319	378140	50.643582320892	0
319	378538	50.648582320892	0
319	379492	50.653582320892	0
319	380320	50.658582320892	0
319	380713	50.663582320892	0
319	381283	50.668582320892	0
319	381589	50.673582320892	0
319	382477	50.678582320892	0
319	383320	50.683582320892	0
319	383511	50.688582320892	0
319	383813	50.693582320892	0
319	383817	50.698582320892	0
319	384680	50.705983607381	0
319	385273	50.710983607381	0
319	385843	50.715983607381	0
319	386434	50.720983607381	0
319	386936	50.725983607381	0
319	387736	50.734338381984	0
319	388123	50.739338381984	0
319	388399	50.744338381984	0
319	388501	50.749338381984	0
319	389352	50.765287595402	0
319	389654	50.770287595402	0
319	389655	50.775287595402	0
319	389842	51.505	1
319	389849	51.51	0
319	391375	51.518504841974	32
319	393232	51.523504841974	0
319	394513	51.528504841974	8
319	395292	51.533504841974	0
319	396099	51.538504841974	0
319	397161	51.543504841974	0
319	398327	51.548504841974	0
319	398935	51.553504841974	0
319	399943	51.558504841974	0
319	401034	51.564478958885	0
319	401805	51.569478958885	0
319	403141	51.574478958885	0
319	404018	51.579478958885	0
319	406060	51.59310847228	0
319	406817	51.59810847228	0
319	407733	51.60310847228	0
319	410304	51.621178249642	0
319	411022	51.626178249642	0
319	411637	51.631178249642	0
319	412302	51.636178249642	0
319	414061	51.64383484557	0
319	414569	51.64883484557	0
319	415378	51.65383484557	0
319	416156	51.65883484557	0
319	417002	51.66383484557	0
319	417865	51.671757030479	0
319	418356	51.676757030479	0
319	419993	51.684163271364	0
319	420760	51.689163271364	0
319	422428	51.703323918779	0
319	422993	51.708323918779	0
319	423831	51.713323918779	0
319	424568	51.718323918779	0
319	425632	51.724268460626	0
319	426592	51.729268460626	0
319	427185	51.734268460626	0
319	428163	51.739268460626	0
319	428929	51.744268460626	0
319	429504	51.749268460626	0
319	430210	51.754268460626	0
319	430696	51.759268460626	0
319	431277	51.764268460626	0
319	431792	51.769268460626	0
319	432284	51.774268460626	0
319	432785	51.779268460626	0
319	433174	51.784268460626	0
319	433175	51.789268460626	0
319	433962	51.810576073249	0
319	434354	51.815576073249	0
319	434355	51.820576073249	0
319	435149	51.838598169404	0
319	435150	51.843598169404	0
319	435549	51.861549033235	0
319	435550	51.866549033235	0
319	435938	51.879560100637	0
319	436332	51.884560100637	0
319	436333	51.889560100637	0
319	436782	52.505	14
319	437432	52.51	0
319	438277	52.515	0
319	438892	52.52	0
319	440050	52.525	0
319	441123	52.53	0
319	441904	52.535	0
319	442594	52.54	0
319	442885	52.545	0
319	443298	52.55	0
319	444064	52.555792732117	0
319	444342	52.560792732117	0
319	446019	52.576389621654	0
319	446724	52.581389621654	0
319	447000	52.586389621654	0
319	447704	52.591654530271	0
319	448120	52.596654530271	0
319	449543	52.608734263819	0
319	450236	52.613734263819	0
319	450609	52.618734263819	0
319	450881	52.623734263819	0
319	451007	52.628734263819	0
319	452535	52.643247796809	0
319	452918	52.648247796809	0
319	452921	52.653247796809	0
319	454537	52.671665826681	0
319	454820	52.676665826681	0
319	455564	52.699074858028	0
319	455570	52.704074858028	0
319	456517	52.719169851445	0
319	457175	52.724169851445	0
319	457504	52.729169851445	0
319	458622	52.734169851445	0
319	458902	52.739169851445	0
319	459272	52.744169851445	0
319	459686	53.505	1
319	460804	53.51	28
319	462155	53.515	0
319	463223	53.52	0
319	464507	53.525	0
319	465133	53.53	0
319	466096	53.535	0
319	467178	53.54	0
319	468346	53.54698747899	0
319	469043	53.55198747899	0
319	469868	53.55698747899	0
319	470978	53.56198747899	0
319	471851	53.56698747899	0
319	472659	53.57198747899	0
319	473351	53.57698747899	0
319	474268	53.58198747899	0
319	474876	53.58698747899	0
319	475686	53.59198747899	0
319	477375	53.60226248097	0
319	478283	53.60726248097	0
319	478474	53.61226248097	0
319	479504	53.617841832348	0
319	480404	53.622841832348	0
319	481269	53.627841832348	0
319	482146	53.632841832348	0
319	482866	53.637841832348	0
319	483540	53.642841832348	0
319	484457	53.648517721606	0
319	485499	53.653517721606	0
319	486005	53.658517721606	0
319	486403	53.663517721606	0
319	487380	53.668517721606	0
319	488314	53.673517721606	0
319	489607	53.678517721606	0
319	490121	53.687866267573	0
319	490994	53.692866267573	0
319	491399	53.697866267573	0
319	491878	53.702866267573	0
319	492192	53.707866267573	0
319	492753	53.712866267573	0
319	493562	53.7187987979	0
319	494007	53.7237987979	0
319	494812	53.7287987979	0
319	495209	53.7337987979	0
319	495720	53.7387987979	0
319	496133	53.7437987979	0
319	496883	53.7487987979	0
319	497288	53.7537987979	0
319	497795	53.7587987979	0
319	498338	53.7637987979	0
319	499463	53.7687987979	0
319	499948	53.7737987979	0
319	500265	53.7787987979	0
319	500847	53.798570280478	0
319	500934	53.803570280478	0
319	501250	53.809241319886	0
319	501652	53.814241319886	0
319	502138	53.819241319886	0
319	502460	53.825723434973	0
319	502464	53.830723434973	0
319	503230	53.859345343281	0
319	503231	53.864345343281	0
319	503429	54.505	1
319	503746	54.51	18
319	504980	54.515	0
319	505971	54.52	0
319	506682	54.525	0
319	507716	54.53	0
319	507929	54.535	0
319	508342	54.54	0
319	509210	54.545	0
319	509992	54.55	0
319	510486	54.555	0
319	511507	54.56	0
319	512678	54.565	0
319	513777	54.57	0
319	514631	54.575	0
319	515884	54.581778066882	0
319	516344	54.586778066882	0
319	516903	54.591810097688	0
319	517605	54.596810097688	0
319	518421	54.601810097688	0
319	519354	54.606810097688	0
319	520030	54.611810097688	0
319	520800	54.616810097688	0
319	521298	54.621810097688	0
319	522119	54.626810097688	0
319	523211	54.631810097688	0
319	523861	54.636810097688	0
319	525669	54.651769428819	0
319	526530	54.656769428819	0
319	527103	54.661769428819	0
319	527810	54.667132989192	0
319	528385	54.672132989192	0
319	528869	54.678762320427	0
319	529572	54.683762320427	0
319	530142	54.688762320427	0
319	530529	54.693762320427	0
319	530617	54.698762320427	0
319	531225	54.704904269663	0
319	531741	54.709904269663	0
319	531831	54.714904269663	0
319	532147	54.721182746655	0
319	532559	54.726182746655	0
319	532560	54.731182746655	0
319	535751	70.00501	0
319	536116	70.01001	0
319	536488	70.01501	0
319	536865	70.02001	0
319	536866	70.02501	0
319	537320	71.00501	0
319	537848	71.01001	0
319	538235	71.01501	0
319	538885	71.02001	0
319	539218	71.02501	0
319	539219	71.03001	0
319	539689	71.044564054457	0
319	540386	71.049564054457	0
319	540387	71.054564054457	0
319	540781	71.092484088453	0
319	540782	71.097484088453	0
319	541343	72.00501	0
319	541745	72.01001	0
319	542136	72.01501	0
319	542517	72.02001	0
319	543015	72.02501	0
319	544091	72.03001	0
319	544178	72.03501	0
319	544486	72.040604104994	0
319	544487	72.045604104994	0
319	545066	73.00501	0
319	545480	73.01001	0
319	545875	73.01501	0
319	546262	73.02001	0
319	546687	73.02501	0
319	547280	73.03001	0
319	547667	73.03501	0
319	547668	73.04001	0
319	548486	73.057572082878	0
319	549253	73.062572082878	0
319	549658	73.067572082878	0
319	550071	73.072572082878	0
319	550072	73.077572082878	0
319	550471	73.10726015015	0
319	550472	73.11226015015	0
319	645043	670.00501	0
319	645140	670.01001	0
319	645873	670.01655602715	0
319	646250	670.02155602715	0
319	646251	670.02655602715	0
319	646823	671.00501	0
319	647233	671.01001	0
319	647697	671.01501	0
319	648406	671.02001	0
319	648835	671.02501	0
319	649618	671.03001	0
319	650009	671.03501	0
319	650010	671.04001	0
319	650571	672.00501	0
319	650976	672.01001	0
319	651450	672.01501	0
319	651914	672.02001	0
319	652401	672.02501	0
319	652739	672.03001	0
319	652740	672.03501	0
319	653196	672.050284074479	0
319	653585	672.055284074479	0
319	653893	672.060284074479	0
319	653894	672.065284074479	0
319	654473	673.00501	0
319	654887	673.01001	0
319	655288	673.01501	0
319	655841	673.02001	0
319	656673	673.02501	0
319	657060	673.03001	0
319	657061	673.03501	0
319	657873	673.050284082878	0
319	658552	673.055284082878	0
319	659063	673.060284082878	0
319	659482	673.065284082878	0
319	659878	673.070284082878	0
319	659879	673.075284082878	0
319	754543	1270.00501	0
319	754905	1270.01001	0
319	755280	1270.01501	0
319	755657	1270.02001	0
319	755658	1270.02501	0
319	756028	1271.00501	0
319	756544	1271.01001	0
319	757018	1271.01501	0
319	757488	1271.02001	0
319	758197	1271.02501	0