file 260697 1353539829                                          
version 2
run AODVScenario_1f-43-20121121-14:53:38-432
attr configname AODVScenario_1f
attr datetime 20121121-14:53:38
attr experiment AODVScenario_1f
attr inifile AODV.ini
attr iterationvars $numNodes=93
attr iterationvars2 "$numNodes=93, $repetition=0"
attr measurement $numNodes=93
attr network csma802154net
attr numNodes 93
attr processid 432
attr repetition 0
attr replication #0
attr resultdir results
attr runnumber 43
attr seedset 43
vector 383  csma802154net.dataCentricNetworkMan  RREQPacketFrequency  ETV
383	8522 38676 737 2453129 1.005 7273.074244134541 1366 0 123 1991 133993
vector 384  csma802154net.dataCentricNetworkMan  RERRPacketFrequency  ETV
384	47198 38635 737 2453129 1.005 7273.074244134541 1366 0 0 0 0
vector 385  csma802154net.dataCentricNetworkMan  DiscoveryPacketFrequency  ETV
385	85833 38635 737 2453129 1.005 7273.074244134541 1366 0 0 0 0
vector 386  csma802154net.dataCentricNetworkMan  RegisterPacketFrequency  ETV
386	124468 38635 737 2453129 1.005 7273.074244134541 1366 0 1 12 12
vector 387  csma802154net.dataCentricNetworkMan  RReplyPacketFrequency  ETV
387	163103 38647 737 2453129 1.005 7273.074244134541 1366 0 86 1548 57112
vector 388  csma802154net.dataCentricNetworkMan  AODVDataPacketFrequency  ETV
388	201750 38654 737 2453129 1.005 7273.074244134541 1366 0 83 1383 41623
vector 395  csma802154net.dataCentricNetworkMan  pendingRegistrationVector  ETV
395	253634 554 36338 829401 43.5 54.844416593181 23 0 2 28 44
vector 394  csma802154net.dataCentricNetworkMan  pendingRREQVector  ETV
394	252405 1229 36343 793234 43.50001 54.53598533835 44 0 1 16 16
vector 392  csma802154net.dataCentricNetworkMan  PendingDataPacketsVector  ETV
392	240404 12001 832796 2452908 70 7273.06876416464 390 0 3 455 871
vector 406  csma802154net.fixhost[10].udpApp  "End-to-end delay"  ETV
406	255955 593 834067 2434908 70.011516035801 7270.014716035802 13 0.010876035801 0.016316035802 0.171468465418 0.0022885091256034
vector 380  csma802154net.dataCentricNetworkMan  dataPacketE2EDelay  ETV
380	2013 6509 834067 2452908 70.011516035801 7273.06876416464 143 0.010876035801 0.10581216464 5.352657966895 0.25405184083262
vector 407  csma802154net.fixhost[11].udpApp  "End-to-end delay"  ETV
407	256548 593 834510 2435351 70.016596052222 7270.018516052223 13 0.015316052222 0.021716052223 0.231748678891 0.0041618260129042
vector 416  csma802154net.fixhost[20].udpApp  "End-to-end delay"  ETV
416	258920 593 835422 2436265 70.024196078362 7270.036036078363 13 0.024196078362 0.036036078363 0.381429018709 0.011321944147183
vector 410  csma802154net.fixhost[14].udpApp  "End-to-end delay"  ETV
410	257734 593 838039 2438330 71.020044058045 7271.016276058045 13 0.016276058045 0.043260058045 0.30473275458 0.0078825509121042
vector 411  csma802154net.fixhost[15].udpApp  "End-to-end delay"  ETV
411	258327 593 839116 2439748 71.049404098034 7271.025476098035 13 0.023236098035 0.052284098035 0.45662127445 0.017386112137283
vector 418  csma802154net.fixhost[22].udpApp  "End-to-end delay"  ETV
418	259513 593 844220 2444638 72.062084151386 7272.040084099571 13 0.032724099571 0.062084151386 0.600445553496 0.028984022130367
vector 408  csma802154net.fixhost[12].udpApp  "End-to-end delay"  ETV
408	257141 593 844712 2442782 72.065252133604 7272.026436084287 13 0.022916084288 0.065252133604 0.419573317658 0.015158034717902
vector 421  csma802154net.fixhost[25].udpApp  "End-to-end delay"  ETV
421	260106 591 845694 2445613 72.073740193137 7272.046692134597 13 0.043204141323 0.093268134597 0.814310028755 0.053514274913822
vector 399  csma802154net.fixhost[3].udpApp  "End-to-end delay"  ETV
399	254188 593 850602 2450526 73.042716093182 7273.034324093183 13 0.027996093183 0.067212093182 0.47206921137 0.01845626956085
vector 400  csma802154net.fixhost[4].udpApp  "End-to-end delay"  ETV
400	254781 593 851092 2451211 73.045164117173 7273.036844117173 13 0.036844117173 0.060844117174 0.568965523252 0.025563254822922
vector 401  csma802154net.fixhost[5].udpApp  "End-to-end delay"  ETV
401	255374 581 852797 2452908 73.10581216464 7273.06876416464 13 0.048532164638 0.10581216464 0.931294140316 0.069335042351684
