file 235392 1353539541                                          
version 2
run AODVScenario_1f-18-20121121-14:46:58-7480
attr configname AODVScenario_1f
attr datetime 20121121-14:46:58
attr experiment AODVScenario_1f
attr inifile AODV.ini
attr iterationvars $numNodes=68
attr iterationvars2 "$numNodes=68, $repetition=0"
attr measurement $numNodes=68
attr network csma802154net
attr numNodes 68
attr processid 7480
attr repetition 0
attr replication #0
attr resultdir results
attr runnumber 18
attr seedset 18
vector 283  csma802154net.dataCentricNetworkMan  RREQPacketFrequency  ETV
283	8559 34436 543 1695835 1.005 7273.069532118208 1219 0 81 1192 48564
vector 284  csma802154net.dataCentricNetworkMan  RERRPacketFrequency  ETV
284	42995 34399 543 1695835 1.005 7273.069532118208 1219 0 0 0 0
vector 285  csma802154net.dataCentricNetworkMan  DiscoveryPacketFrequency  ETV
285	77394 34399 543 1695835 1.005 7273.069532118208 1219 0 0 0 0
vector 286  csma802154net.dataCentricNetworkMan  RegisterPacketFrequency  ETV
286	111793 34399 543 1695835 1.005 7273.069532118208 1219 0 1 12 12
vector 287  csma802154net.dataCentricNetworkMan  RReplyPacketFrequency  ETV
287	146192 34411 543 1695835 1.005 7273.069532118208 1219 0 79 1280 39178
vector 288  csma802154net.dataCentricNetworkMan  AODVDataPacketFrequency  ETV
288	180603 34412 543 1695835 1.005 7273.069532118208 1219 0 78 1191 34391
vector 295  csma802154net.dataCentricNetworkMan  pendingRegistrationVector  ETV
295	228371 553 18765 511051 43.5 54.83268485937 23 0 2 18 24
vector 294  csma802154net.dataCentricNetworkMan  pendingRREQVector  ETV
294	226966 1405 18770 480394 43.50001 54.61371700827 50 0 1 19 19
vector 289  csma802154net.dataCentricNetworkMan  AODVDataLineBreakVector  ETV
289	215015 60 387603 516328 52.708388206633 54.910586540739 2 1 2 3 5
vector 292  csma802154net.dataCentricNetworkMan  PendingDataPacketsVector  ETV
292	215075 11891 519061 1695646 70 7273.059532118208 390 0 3 455 871
vector 311  csma802154net.fixhost[15].udpApp  "End-to-end delay"  ETV
311	234212 590 520854 1684520 70.021036092324 7270.032092092325 13 0.019436092324 0.050332092325 0.386133200228 0.012481404371586
vector 280  csma802154net.dataCentricNetworkMan  dataPacketE2EDelay  ETV
280	2091 6468 520854 1695646 70.021036092324 7273.059532118208 143 0.011516041701 0.079220164365 4.944009274625 0.20303800838024
vector 308  csma802154net.fixhost[12].udpApp  "End-to-end delay"  ETV
308	233032 590 521220 1684150 70.033412068754 7270.027012068754 13 0.016276068755 0.049660068752 0.341884893804 0.009993080819841
vector 300  csma802154net.fixhost[4].udpApp  "End-to-end delay"  ETV
300	228924 578 521920 1683096 70.046252041699 7270.014716041701 13 0.011516041701 0.046252041699 0.238092542108 0.0053693131210712
vector 305  csma802154net.fixhost[9].udpApp  "End-to-end delay"  ETV
305	231852 590 523465 1686067 71.017876052354 7271.016596052354 13 0.015636052354 0.050300052354 0.319276680597 0.0094124153344484
vector 309  csma802154net.fixhost[13].udpApp  "End-to-end delay"  ETV
309	233622 590 524524 1687484 71.028604107372 7271.037172107373 13 0.028604107372 0.065652107374 0.559581395854 0.02614156882431
vector 307  csma802154net.fixhost[11].udpApp  "End-to-end delay"  ETV
307	232442 590 524877 1686766 71.030740079034 7271.026084079035 13 0.020076079034 0.052572079036 0.390437027462 0.013091421156784
vector 301  csma802154net.fixhost[5].udpApp  "End-to-end delay"  ETV
301	229502 590 526836 1689577 72.020396069989 7272.020076069989 13 0.020076069989 0.037956097628 0.326788992778 0.0085914896183224
vector 302  csma802154net.fixhost[6].udpApp  "End-to-end delay"  ETV
302	230092 590 527925 1690672 72.032084108607 7272.055764108607 13 0.031764108607 0.061524108606 0.526381509138 0.022346990149219
vector 303  csma802154net.fixhost[7].udpApp  "End-to-end delay"  ETV
303	230682 590 531120 1694575 73.040436104554 7273.035564104552 13 0.032116104554 0.043244104554 0.494869359193 0.01899088359233
vector 304  csma802154net.fixhost[8].udpApp  "End-to-end delay"  ETV
304	231272 580 532521 1695646 73.071940118209 7273.059532118208 13 0.02959611821 0.071940118209 0.603965536717 0.030464111636052
vector 312  csma802154net.fixhost[16].udpApp  "End-to-end delay"  ETV
312	234802 590 532890 1695272 73.079220164365 7273.042492164363 13 0.042492164363 0.079220164365 0.756598136746 0.04615532975628
