version 2
run AODVScenario_1f-34-20121121-14:50:57-7584
attr configname AODVScenario_1f
attr datetime 20121121-14:50:57
attr experiment AODVScenario_1f
attr inifile AODV.ini
attr iterationvars $numNodes=84
attr iterationvars2 "$numNodes=84, $repetition=0"
attr measurement $numNodes=84
attr network csma802154net
attr numNodes 84
attr processid 7584
attr repetition 0
attr replication #0
attr resultdir results
attr runnumber 34
attr seedset 34

vector 347  csma802154net.dataCentricNetworkMan  RREQPacketFrequency  ETV
vector 348  csma802154net.dataCentricNetworkMan  RERRPacketFrequency  ETV
vector 349  csma802154net.dataCentricNetworkMan  DiscoveryPacketFrequency  ETV
vector 350  csma802154net.dataCentricNetworkMan  RegisterPacketFrequency  ETV
vector 351  csma802154net.dataCentricNetworkMan  RReplyPacketFrequency  ETV
vector 352  csma802154net.dataCentricNetworkMan  AODVDataPacketFrequency  ETV
vector 359  csma802154net.dataCentricNetworkMan  pendingRegistrationVector  ETV
vector 358  csma802154net.dataCentricNetworkMan  pendingRREQVector  ETV
vector 356  csma802154net.dataCentricNetworkMan  PendingDataPacketsVector  ETV
vector 363  csma802154net.fixhost[3].udpApp  "End-to-end delay"  ETV
vector 344  csma802154net.dataCentricNetworkMan  dataPacketE2EDelay  ETV
vector 372  csma802154net.fixhost[12].udpApp  "End-to-end delay"  ETV
vector 373  csma802154net.fixhost[13].udpApp  "End-to-end delay"  ETV
vector 368  csma802154net.fixhost[8].udpApp  "End-to-end delay"  ETV
vector 378  csma802154net.fixhost[18].udpApp  "End-to-end delay"  ETV
vector 370  csma802154net.fixhost[10].udpApp  "End-to-end delay"  ETV
vector 365  csma802154net.fixhost[5].udpApp  "End-to-end delay"  ETV
vector 381  csma802154net.fixhost[21].udpApp  "End-to-end delay"  ETV
vector 376  csma802154net.fixhost[16].udpApp  "End-to-end delay"  ETV
vector 366  csma802154net.fixhost[6].udpApp  "End-to-end delay"  ETV
vector 367  csma802154net.fixhost[7].udpApp  "End-to-end delay"  ETV
vector 369  csma802154net.fixhost[9].udpApp  "End-to-end delay"  ETV
344	647925	70.014716042483	0.014716042483
344	648335	70.019476063529	0.019476063529
344	648751	70.024236084747	0.024236084747
344	651262	71.036716067241	0.036716067241
344	652963	71.072052116996	0.072052116996
344	653407	71.079732095373	0.079732095373
344	657051	72.029956086289	0.029956086289
344	658349	72.060524145728	0.060524145728
344	659705	72.07030012164	0.07030012164
344	662945	73.029636087218	0.029636087218
344	664465	73.039084122557	0.039084122557
344	665707	73.073892145339	0.073892145339
344	769817	670.011196042483	0.011196042483
344	770227	670.01563606353	0.01563606353
344	770642	670.019116084748	0.019116084748
344	773160	671.020396067241	0.020396067241
344	774859	671.055412116996	0.055412116996
344	775304	671.061988095374	0.061988095374
344	778294	672.025796086289	0.025796086289
344	780510	672.06454012164	0.06454012164
344	781386	672.076628145727	0.076628145727
344	784230	673.025796087217	0.025796087217
344	786158	673.042604122556	0.042604122556
344	787399	673.064612145339	0.064612145339
344	891510	1270.015036042483	0.015036042483
344	891920	1270.02011606353	0.02011606353
344	892335	1270.023596084748	0.023596084748
344	894849	1271.02167606724	0.02167606724
344	896551	1271.055164095374	0.055164095374
344	897631	1271.085028116997	0.085028116997
344	900630	1272.029636086289	0.029636086289
344	902828	1272.069980145728	0.069980145728
344	903731	1272.08014812164	0.08014812164
344	907377	1273.029244087218	0.029244087218
344	908814	1273.041356151179	0.041356151179
344	909543	1273.047364159086	0.047364159086
344	1013737	1870.013756042483	0.013756042483
344	1014147	1870.01883606353	0.01883606353
344	1014563	1870.022956084748	0.022956084748
344	1017074	1871.02359606724	0.02359606724
344	1018533	1871.052924095373	0.052924095373
344	1019391	1871.081012116996	0.081012116996
344	1022210	1872.027716086288	0.027716086288
344	1024847	1872.043884121639	0.043884121639
344	1025276	1872.048044145725	0.048044145725
344	1028213	1873.025476087218	0.025476087218
344	1030043	1873.039724122557	0.039724122557
344	1031722	1873.06461214534	0.06461214534
344	1135832	2470.013116042483	0.013116042483
344	1136242	2470.01691606353	0.01691606353
344	1136658	2470.021676084747	0.021676084747
344	1139083	2471.021996067241	0.021996067241
344	1141320	2471.061740095373	0.061740095373
344	1141757	2471.068388116995	0.068388116995
344	1145389	2472.029564086288	0.029564086288
344	1146474	2472.036276145728	0.036276145728
344	1148249	2472.07790812164	0.07790812164
344	1151083	2473.024836087218	0.024836087218
344	1153847	2473.051772151179	0.051772151179
344	1154268	2473.073532159086	0.073532159086
344	1258832	3070.011516042483	0.011516042483
344	1259242	3070.01691606353	0.01691606353
344	1259658	3070.021676084747	0.021676084747
344	1262585	3071.023916067241	0.023916067241
344	1263455	3071.036852095373	0.036852095373
344	1264313	3071.053812116996	0.053812116996
344	1268889	3072.032764086289	0.032764086289
344	1269335	3072.03499612164	0.03499612164
344	1270206	3072.040612145728	0.040612145728
344	1273953	3073.029564087218	0.029564087218
344	1276456	3073.066244151178	0.066244151178
344	1277292	3073.089852159085	0.089852159085
344	1381486	3670.012796042482	0.012796042482
344	1381896	3670.018196063529	0.018196063529
344	1382312	3670.022956084747	0.022956084747
344	1385053	3671.024556067241	0.024556067241
344	1385912	3671.032124116997	0.032124116997
344	1386786	3671.041260095374	0.041260095374
344	1390203	3672.029636086289	0.029636086289
344	1391572	3672.041892121638	0.041892121638
344	1392867	3672.062372145727	0.062372145727
344	1396566	3673.039804087218	0.039804087218
344	1398020	3673.04989214534	0.04989214534
344	1399378	3673.072932122557	0.072932122557
344	1503467	4270.017596042483	0.017596042483
344	1503876	4270.02107606353	0.02107606353
344	1504292	4270.026156084748	0.026156084748
344	1506801	4271.023276067238	0.023276067238
344	1508500	4271.051004116995	0.051004116995
344	1508944	4271.054700095371	0.054700095371
344	1513298	4272.038764121639	0.038764121639
344	1513722	4272.040940086288	0.040940086288
344	1515037	4272.065572145727	0.065572145727
344	1518699	4273.028284087215	0.028284087215
344	1520039	4273.040076151175	0.040076151175
344	1520872	4273.048076159083	0.048076159083
344	1624982	4870.011836042483	0.011836042483
344	1625392	4870.01563606353	0.01563606353
344	1625807	4870.019116084748	0.019116084748
344	1628960	4871.026756116997	0.026756116997
344	1629845	4871.034932095863	0.034932095863
344	1630284	4871.03848410912	0.03848410912
344	1633579	4872.049404086289	0.049404086289
344	1635649	4872.08822012164	0.08822012164
344	1636943	4872.114316145728	0.114316145728
344	1640297	4873.029244087217	0.029244087217
344	1642042	4873.054404151178	0.054404151178
344	1642772	4873.059772159086	0.059772159086
344	1746966	5470.013436042482	0.013436042482
344	1747376	5470.018836063529	0.018836063529
344	1747792	5470.022956084747	0.022956084747
344	1750961	5471.031484095862	0.031484095862
344	1751397	5471.035572116997	0.035572116997
344	1752271	5471.04552410912	0.04552410912
344	1755651	5472.050684086289	0.050684086289
344	1758747	5472.089748121638	0.089748121638
344	1759176	5472.095684145727	0.095684145727
344	1762198	5473.025796087218	0.025796087218
344	1764538	5473.061124151178	0.061124151178
344	1765374	5473.086332159085	0.086332159085
344	1869484	6070.013116042483	0.013116042483
344	1869894	6070.017236063529	0.017236063529
344	1870310	6070.021036084747	0.021036084747
344	1872820	6071.019756067241	0.019756067241
344	1874519	6071.052212095374	0.052212095374
344	1874956	6071.057404116997	0.057404116997
344	1878372	6072.028036086289	0.028036086289
344	1879741	6072.04253212164	0.04253212164
344	1881467	6072.061412145727	0.061412145727
344	1884314	6073.027396087218	0.027396087218
344	1886963	6073.044204122557	0.044204122557
344	1887929	6073.06934014534	0.06934014534
344	1992040	6670.015356042483	0.015356042483
344	1992449	6670.020116063529	0.020116063529
344	1992865	6670.024876084747	0.024876084747
344	1995378	6671.01975606724	0.01975606724
344	1997082	6671.050612116996	0.050612116996
344	1997525	6671.054060095373	0.054060095373
344	2001568	6672.034044086287	0.034044086287
344	2002923	6672.060524145726	0.060524145726
344	2003826	6672.067492121637	0.067492121637
344	2007797	6673.032436122556	0.032436122556
344	2009148	6673.062052145339	0.062052145339
344	2010054	6673.072868087218	0.072868087218
344	2114234	7270.012476042483	0.012476042483
344	2114644	7270.01595606353	0.01595606353
344	2115059	7270.019436084748	0.019436084748
344	2117568	7271.022956067241	0.022956067241
344	2119265	7271.053244116995	0.053244116995
344	2119708	7271.058932095371	0.058932095371
344	2123121	7272.026756086289	0.026756086289
344	2124490	7272.041892121637	0.041892121637
344	2125784	7272.058604145728	0.058604145728
344	2128822	7273.029316087217	0.029316087217
344	2130717	7273.046372145338	0.046372145338
344	2131646	7273.058460122555	0.058460122555
347	665	1.005	1
347	675	1.01	0
347	1009	1.017293717469	20
347	1928	1.022293717469	61
347	3079	1.027293717469	34
347	4348	1.032293717469	99
347	6260	1.037293717469	44
347	8359	1.042293717469	52
347	10062	1.047293717469	83
347	11779	1.052293717469	63
347	12927	1.057293717469	60
347	14438	1.062293717469	80
347	15466	1.067293717469	52
347	15829	1.072293717469	17
347	16689	1.077293717469	48
347	17399	1.082293717469	52
347	18179	1.087293717469	70
347	19156	1.092293717469	72
347	19725	1.097293717469	43
347	19726	1.102293717469	0
347	20372	1.118278554996	60
347	20712	1.123278554996	34
347	20919	1.128278554996	7
347	21388	1.133278554996	40
347	21657	1.138278554996	38
347	21993	1.143278554996	32
347	22350	1.148278554996	37
347	22351	1.153278554996	0
347	22711	1.172004048295	37
347	23080	1.177004048295	40
347	23081	1.182004048295	0
347	23438	1.190558242729	37
347	23439	1.195558242729	0
347	30841	43.505	1
347	31677	43.51	26
347	33510	43.515	0
347	34464	43.52	0
347	35204	43.525	0
347	35734	43.53	0
347	36523	43.535	0
347	37420	43.54	0
347	40333	43.56245248591	0
347	40959	43.56745248591	0
347	41923	43.57245248591	0
347	42785	43.57745248591	0
347	43545	43.584180469551	0
347	44435	43.589180469551	0
347	45070	43.594180469551	0
347	46196	43.599180469551	0
347	47214	43.604461396721	0
347	48014	43.609461396721	0
347	49643	43.618837426472	0
347	50552	43.623837426472	0
347	51193	43.628837426472	0
347	52592	43.636330198492	0
347	53277	43.641330198492	0
347	54111	43.646330198492	0
347	56844	43.666896285203	0
347	57589	43.671896285203	0
347	58193	43.677006891427	0
347	58669	43.682006891427	0
347	59244	43.687006891427	0
347	59969	43.692006891427	0
347	60687	43.697006891427	0
347	61505	43.702006891427	0
347	62311	43.707006891427	0
347	63356	43.712006891427	0
347	63857	43.717006891427	0
347	64651	43.728494040593	0
347	65396	43.733494040593	0
347	65979	43.738494040593	0
347	66579	43.743540785115	0
347	67240	43.748540785115	0
347	67874	43.753540785115	0
347	68406	43.758540785115	0
347	69282	43.763540785115	0
347	69694	43.768540785115	0
347	70996	43.776758065067	0
347	71289	43.781758065067	0
347	71400	43.786758065067	0
347	71789	43.791758065067	0
347	73223	43.809980009339	0
347	73615	43.814980009339	0
347	74187	43.826452582132	0
347	74483	43.831452582132	0
347	74913	43.83735558854	0
347	75629	43.84235558854	0
347	76030	43.84735558854	0
347	76421	43.85235558854	0
347	77007	43.877582962293	0
347	77401	43.882582962293	0
347	77776	43.887582962293	0
347	77777	43.892582962293	0
347	78178	43.905886913092	0
347	78179	43.910886913092	0
347	78355	44.505	1
347	78362	44.51	0
347	79970	44.519580891692	33
347	81190	44.524580891692	0
347	82402	44.529580891692	0
347	83489	44.534580891692	0
347	83880	44.539580891692	0
347	85118	44.545740797251	0
347	85975	44.550740797251	0
347	86656	44.555740797251	0
347	87672	44.561029750446	0
347	88208	44.566029750446	0
347	88950	44.571029750446	0
347	89914	44.576029750446	0
347	91901	44.586709084478	0
347	92632	44.591709084478	0
347	93306	44.596709084478	0
347	94036	44.601709084478	0
347	96712	44.619745142985	0
347	97235	44.624745142985	0
347	98143	44.629745142985	0
347	98986	44.635879130275	0
347	99873	44.640879130275	0
347	101191	44.650102607575	0
347	102281	44.655102607575	0
347	103014	44.660102607575	0
347	103854	44.665102607575	0
347	106344	44.677809083572	0
347	107226	44.682809083572	0
347	109431	44.693403091888	0
347	110380	44.698403091888	0
347	111175	44.703403091888	0
347	111957	44.708403091888	0
347	113049	44.713403091888	0
347	113841	44.718403091888	0
347	114952	44.723403091888	0
347	115654	44.728403091888	0
347	116546	44.733403091888	0
347	117296	44.739608577938	0
347	118005	44.744608577938	0
347	118924	44.750109263587	0
347	119833	44.755109263587	0
347	120790	44.760109263587	0
347	121293	44.765109263587	0
347	122508	44.772481134861	0
347	123147	44.777481134861	0
347	123778	44.782481134861	0
347	125059	44.788769425457	0
347	125637	44.793769425457	0
347	126064	44.798769425457	0
347	128299	44.816521167737	0
347	128393	44.821521167737	0
347	129235	44.828033115994	0
347	130128	44.833033115994	0
347	131066	44.842188736333	0
347	131568	44.847188736333	0
347	132414	44.865460918832	0
347	133213	44.870460918832	0
347	133428	44.875460918832	0
347	134257	44.883284201937	0
347	134261	44.888284201937	0
347	134736	44.897065175425	0
347	135150	44.902065175425	0
347	135575	44.907065175425	0
347	135899	44.912160978046	0
347	135900	44.917160978046	0
347	136307	44.934579223303	0
347	136308	44.939579223303	0
347	136740	44.973628830868	0
347	136741	44.978628830868	0
347	136917	45.505	1
347	136924	45.51	0
347	138266	45.51925729088	25
347	139273	45.52425729088	0
347	140318	45.530585916244	0
347	141009	45.535585916244	0
347	141932	45.540987558855	0
347	142757	45.545987558855	0
347	143668	45.550987558855	0
347	144208	45.555987558855	0
347	145410	45.566831840737	0
347	146398	45.571831840737	0
347	147221	45.576831840737	0
347	147955	45.581831840737	0
347	148819	45.588824277202	0
347	149348	45.593824277202	0
347	151110	45.603744213625	0
347	151968	45.608744213625	0
347	153295	45.624192194221	0
347	154392	45.629192194221	0
347	155473	45.634192194221	0
347	156210	45.639192194221	0
347	156816	45.644192194221	0
347	158454	45.655563560582	0
347	158996	45.660563560582	0
347	159615	45.665563560582	0
347	160465	45.670563560582	0
347	161349	45.675563560582	0
347	161952	45.680563560582	0
347	162763	45.685563560582	0
347	163452	45.690563560582	0
347	163787	45.695563560582	0
347	164494	45.700563560582	0
347	165001	45.705563560582	0
347	165472	45.710563560582	0
347	166199	45.715563560582	0
347	168133	45.73025689687	0
347	168835	45.73525689687	0
347	169632	45.74025689687	0
347	170127	45.74525689687	0
347	170948	45.75025689687	0
347	171692	45.75525689687	0
347	172084	45.76025689687	0
347	172872	45.76525689687	0
347	173266	45.77025689687	0
347	173675	45.77525689687	0
347	173676	45.78025689687	0
347	174544	45.793737946879	0
347	174852	45.798737946879	0
347	175261	45.803737946879	0
347	175262	45.808737946879	0
347	175660	45.821250009196	0
347	175661	45.826250009196	0
347	175837	46.505	1
347	176223	46.51	27
347	177572	46.515	0
347	178761	46.52	0
347	179826	46.525	0
347	181123	46.53	0
347	181644	46.535	0
347	182511	46.541613707611	0
347	183120	46.546613707611	0
347	183584	46.551613707611	0
347	184237	46.556613707611	0
347	185276	46.561613707611	0
347	186028	46.566613707611	0
347	186573	46.571613707611	0
347	187376	46.576613707611	0
347	187763	46.581613707611	0
347	188497	46.586933319367	0
347	189003	46.591933319367	0
347	189634	46.596933319367	0
347	190503	46.601933319367	0
347	191531	46.608983678501	0
347	191922	46.613983678501	0
347	192548	46.619116067903	0
347	193178	46.624116067903	0
347	193817	46.629116067903	0
347	194572	46.634116067903	0
347	195457	46.639116067903	0
347	196473	46.644116067903	0
347	197460	46.649116067903	0
347	198287	46.655588170034	0
347	198999	46.660588170034	0
347	199735	46.668597402991	0
347	200049	46.673597402991	0
347	200968	46.682844749907	0
347	201693	46.687844749907	0
347	202382	46.692844749907	0
347	204618	46.709968022784	0
347	205324	46.714968022784	0
347	206315	46.719968022784	0
347	206729	46.724968022784	0
347	207047	46.729968022784	0
347	207688	46.734968022784	0
347	208411	46.739968022784	0
347	210237	46.760542177378	0
347	211036	46.765542177378	0
347	211476	46.770542177378	0
347	211999	46.775542177378	0
347	212759	46.780542177378	0
347	213649	46.793365327946	0
347	213993	46.798365327946	0
347	213994	46.803365327946	0
347	214914	46.835240245212	0
347	215328	46.840240245212	0
347	215652	46.845240245212	0
347	215653	46.850240245212	0
347	215829	47.505	1
347	215836	47.51	0
347	217177	47.518357091141	29
347	218556	47.523357091141	0
347	219310	47.528357091141	0
347	220248	47.533357091141	0
347	221230	47.538357091141	0
347	222345	47.543357091141	0
347	223265	47.548357091141	0
347	224214	47.553357091141	0
347	225161	47.558357091141	0
347	225785	47.563357091141	0
347	226750	47.570078968321	0
347	227465	47.575078968321	0
347	228597	47.582855012097	0
347	229569	47.587855012097	0
347	230630	47.596160685931	0
347	231540	47.601160685931	0
347	232046	47.606160685931	0
347	233213	47.611403932087	0
347	233805	47.616403932087	0
347	235086	47.629203484614	0
347	235832	47.634203484614	0
347	236861	47.639203484614	0
347	237807	47.644976648274	0
347	238773	47.649976648274	0
347	240115	47.660922124493	0
347	240836	47.665922124493	0
347	242563	47.678618144448	0
347	243193	47.683618144448	0
347	243976	47.689161700044	0
347	244596	47.694161700044	0
347	245686	47.699161700044	0
347	246328	47.704161700044	0
347	247392	47.710123571852	0
347	248324	47.715123571852	0
347	249045	47.720123571852	0
347	250059	47.725123571852	0
347	250707	47.730123571852	0
347	251492	47.735123571852	0
347	252643	47.740539592865	0
347	253452	47.745539592865	0
347	254199	47.750539592865	0
347	255102	47.755539592865	0
347	256113	47.763947523926	0
347	256559	47.768947523926	0
347	257088	47.773947523926	0
347	257421	47.778947523926	0
347	258150	47.783955506422	0
347	258996	47.788955506422	0
347	259533	47.793955506422	0
347	259955	47.798955506422	0
347	260652	47.805927892501	0
347	260991	47.810927892501	0
347	261483	47.815927892501	0
347	262000	47.820927892501	0
347	262442	47.825927892501	0
347	263615	47.842360843794	0
347	263728	47.847360843794	0
347	264459	47.858592279241	0
347	264572	47.863592279241	0
347	265078	47.875441247493	0
347	265414	47.880441247493	0
347	265415	47.885441247493	0
347	265833	47.935785268964	0
347	265834	47.940785268964	0
347	266010	48.505	1
347	266017	48.51	0
347	267858	48.518847590278	35
347	269073	48.523847590278	0
347	269887	48.528847590278	0
347	271607	48.53527587545	0
347	272041	48.54027587545	0
347	273197	48.54527587545	0
347	274230	48.55027587545	0
347	274936	48.55527587545	0
347	275903	48.56027587545	0
347	277226	48.56527587545	0
347	279358	48.576149331106	0
347	280145	48.581149331106	0
347	280660	48.586149331106	0
347	281122	48.591149331106	0
347	282065	48.596149331106	0
347	282884	48.601149331106	0
347	285399	48.613518844259	0
347	286330	48.618518844259	0
347	287237	48.623518844259	0
347	287692	48.628518844259	0
347	290465	48.644379656055	0
347	291192	48.649379656055	0
347	291847	48.654379656055	0
347	292769	48.659379656055	0
347	293551	48.667768159282	0
347	294607	48.672768159282	0
347	297106	48.690286854696	0
347	298043	48.695286854696	0
347	299395	48.703507676674	0
347	299940	48.708507676674	0
347	301367	48.719857613325	0
347	302094	48.724857613325	0
347	302839	48.730436818584	0
347	303777	48.735436818584	0
347	304496	48.740436818584	0
347	305636	48.745436818584	0
347	306402	48.750436818584	0
347	307017	48.755436818584	0
347	308061	48.760685392219	0
347	308690	48.765685392219	0
347	309639	48.770685392219	0
347	310493	48.775685392219	0
347	311101	48.780685392219	0
347	312124	48.786164316959	0
347	312752	48.791164316959	0
347	313178	48.796870640061	0
347	314177	48.801870640061	0
347	315087	48.806870640061	0
347	316213	48.811921057682	0
347	317094	48.816921057682	0
347	317630	48.821921057682	0
347	318078	48.826921057682	0
347	318619	48.831921057682	0
347	319262	48.836921057682	0
347	319263	48.841921057682	0
347	320134	48.850194531717	0
347	320587	48.855194531717	0
347	321120	48.860194531717	0
347	321441	48.865194531717	0
347	322245	48.870194531717	0
347	323408	48.885130117276	0
347	323968	48.890130117276	0
347	325117	48.898118976746	0
347	325211	48.903118976746	0
347	326368	48.920227635048	0
347	326923	48.925227635048	0
347	327471	48.933781296426	0
347	328230	48.938781296426	0
347	328231	48.943781296426	0
347	328439	49.505	1
347	328852	49.51	36
347	330633	49.515	0
347	332518	49.52	0
347	334013	49.525	0
347	335171	49.53	0
347	335944	49.535	0
347	337256	49.54	0
347	338281	49.545	0
347	339866	49.551124123254	0
347	340803	49.556124123254	0
347	342005	49.561124123254	0
347	344080	49.570349213801	0
347	345275	49.575349213801	0
347	346160	49.580349213801	0
347	346988	49.585349213801	0
347	348139	49.590349213801	0
347	349186	49.595349213801	0
347	349814	49.600349213801	0
347	351008	49.605349213801	0
347	351968	49.610349213801	0
347	352857	49.615349213801	0
347	354527	49.625503661174	0
347	355443	49.630503661174	0
347	356598	49.640167016628	0
347	357413	49.645167016628	0
347	358291	49.650167016628	0
347	359357	49.658106465723	0
347	360467	49.663106465723	0
347	362869	49.68009704915	0
347	363831	49.68509704915	0
347	364695	49.69009704915	0
347	365900	49.69509704915	0
347	369602	49.716877507473	0
347	370761	49.721877507473	0
347	371496	49.726877507473	0
347	372253	49.731877507473	0
347	373196	49.736877507473	0
347	374005	49.741877507473	0
347	375253	49.747143513604	0
347	376039	49.752143513604	0
347	376545	49.757143513604	0
347	376968	49.762143513604	0
347	377711	49.767143513604	0
347	378589	49.772143513604	0
347	380594	49.787253026955	0
347	381306	49.792253026955	0
347	382026	49.797253026955	0
347	382405	49.802253026955	0
347	384068	49.810963987138	0
347	384358	49.815963987138	0
347	386076	49.831408644498	0
347	386592	49.836408644498	0
347	387022	49.841408644498	0
347	387650	49.846408644498	0
347	388498	49.851408644498	0
347	389470	49.856408644498	0
347	390367	49.861408644498	0
347	390809	49.866408644498	0
347	391595	49.871885370088	0
347	392349	49.876885370088	0
347	393064	49.881885370088	0
347	393498	49.887557134969	0
347	393918	49.892557134969	0
347	394014	49.897557134969	0
347	394430	49.903498998651	0
347	394772	49.908498998651	0
347	394773	49.913498998651	0
347	395215	49.92900477146	0
347	395216	49.93400477146	0
347	395741	50.505	17
347	396846	50.51	0
347	397799	50.515	0
347	398547	50.52	0
347	399383	50.525	0
347	399801	50.53	0
347	400637	50.535	0
347	401330	50.54	0
347	402355	50.545	0
347	403451	50.55	0
347	404082	50.555	0
347	405194	50.56	0
347	407012	50.573659995834	0
347	407777	50.578659995834	0
347	409084	50.583659995834	0
347	409702	50.588659995834	0
347	411369	50.598878315112	0
347	412272	50.603878315112	0
347	412968	50.608878315112	0
347	414775	50.623241080491	0
347	415176	50.628241080491	0
347	416331	50.633500690506	0
347	417906	50.638500690506	0
347	419065	50.643500690506	0
347	419450	50.648500690506	0
347	420168	50.653500690506	0
347	420578	50.658500690506	0
347	420990	50.663500690506	0
347	421619	50.668500690506	0
347	422415	50.673500690506	0
347	422416	50.678500690506	0
347	423598	50.697526777244	0
347	423726	50.702526777244	0
347	425031	50.716645575479	0
347	425437	50.721645575479	0
347	425838	50.739697333168	0
347	425839	50.744697333168	0
347	426277	50.803561355853	0
347	426278	50.808561355853	0
347	426578	51.505	1
347	427122	51.51	29
347	429079	51.515	0
347	430332	51.52	0
347	431300	51.525	0
347	432459	51.53	0
347	433338	51.535	0
347	434309	51.54	0
347	435389	51.546432074942	0
347	436530	51.551432074942	0
347	437620	51.556432074942	0
347	438704	51.561432074942	0
347	440811	51.575039768558	0
347	441156	51.580039768558	0
347	441908	51.585039768558	0
347	442455	51.590039768558	0
347	443362	51.595039768558	0
347	444529	51.600039768558	0
347	445067	51.605039768558	0
347	447526	51.621650268254	0
347	448461	51.626650268254	0
347	449093	51.631650268254	0
347	452099	51.650627293863	0
347	452532	51.655627293863	0
347	453289	51.660768111208	0
347	454201	51.665768111208	0
347	456297	51.677591934308	0
347	456856	51.682591934308	0
347	457605	51.687591934308	0
347	458353	51.692591934308	0
347	459651	51.697591934308	0
347	460476	51.702591934308	0
347	460784	51.707591934308	0
347	461735	51.713759473668	0
347	462487	51.718759473668	0
347	463329	51.723759473668	0
347	464066	51.728759473668	0
347	464925	51.733759473668	0
347	466099	51.738759473668	0
347	467034	51.743759473668	0
347	467549	51.748759473668	0
347	468658	51.753759473668	0
347	469427	51.758759473668	0
347	469985	51.763759473668	0
347	470737	51.768759473668	0
347	470950	51.773759473668	0
347	471356	51.778759473668	0
347	472710	51.789151463021	0
347	473164	51.794151463021	0
347	473829	51.799151463021	0
347	474989	51.804151463021	0
347	475184	51.809151463021	0
347	475692	51.814151463021	0
347	476123	51.824948490105	0
347	476987	51.829948490105	0
347	477759	51.835040185203	0
347	478167	51.840040185203	0
347	479035	51.854404510807	0
347	479474	51.859404510807	0
347	480313	51.926454635989	0
347	480314	51.931454635989	0
347	480517	52.505	1
347	480524	52.51	0
347	482056	52.518493398919	26
347	483364	52.523493398919	0
347	484506	52.528493398919	0
347	485814	52.533493398919	0
347	486767	52.538493398919	0
347	487639	52.543493398919	0
347	488684	52.548493398919	0
347	489769	52.553493398919	0
347	490908	52.558493398919	0
347	491570	52.563493398919	0
347	492832	52.568493398919	0
347	493819	52.573493398919	0
347	494734	52.578493398919	0
347	496303	52.583493398919	0
347	496931	52.588493398919	0
347	497612	52.593493398919	0
347	498607	52.598493398919	0
347	499101	52.603493398919	0
347	499931	52.608493398919	0
347	501073	52.613668859292	0
347	501509	52.618668859292	0
347	502654	52.623791419442	0
347	503383	52.628791419442	0
347	504139	52.633791419442	0
347	505661	52.641432819209	0
347	506283	52.646432819209	0
347	506707	52.651432819209	0
347	507894	52.656443966209	0
347	508730	52.661443966209	0
347	510653	52.674215438602	0
347	511596	52.679215438602	0
347	513748	52.693422946079	0
347	514844	52.698422946079	0
347	515817	52.703422946079	0
347	516671	52.708422946079	0
347	517308	52.713422946079	0
347	518902	52.722015852913	0
347	519636	52.727015852913	0
347	520906	52.735711809929	0
347	521345	52.740711809929	0
347	522001	52.745711809929	0
347	522741	52.750711809929	0
347	523483	52.755711809929	0
347	524535	52.766708854185	0
347	525093	52.771708854185	0
347	526195	52.776708854185	0
347	526780	52.781708854185	0
347	528243	52.792384986707	0
347	528653	52.797384986707	0
347	528657	52.802384986707	0
347	529820	52.810087850411	0
347	530553	52.815087850411	0
347	530991	52.820087850411	0
347	531293	52.825087850411	0
347	532209	52.835644132415	0
347	532210	52.840644132415	0
347	532826	52.853339271969	0
347	532827	52.858339271969	0
347	533248	52.880444864633	0
347	533249	52.885444864633	0
347	534102	52.935764879274	0
347	534519	52.940764879274	0
347	534920	52.945764879274	0
347	535131	53.505	1
347	535454	53.51	19
347	536622	53.515	0
347	537471	53.52	0
347	538339	53.525	0
347	539113	53.53	0
347	540043	53.535	0
347	541181	53.54	0
347	541910	53.545	0
347	542681	53.55	0
347	543540	53.555	0
347	543966	53.56	0
347	544908	53.565	0
347	545503	53.57	0
347	546220	53.575	0
347	547153	53.58	0
347	548081	53.585	0
347	549474	53.59200631082	0
347	550440	53.59700631082	0
347	550535	53.60200631082	0
347	551388	53.608182892819	0
347	552638	53.613182892819	0
347	553516	53.618182892819	0
347	554858	53.625665566906	0
347	555539	53.630665566906	0
347	557597	53.640305589555	0
347	558099	53.645305589555	0
347	558526	53.651746160507	0
347	558939	53.656746160507	0
347	559787	53.661993552983	0
347	560538	53.666993552983	0
347	561653	53.691610173987	0
347	562377	53.696610173987	0
347	563159	53.701610173987	0
347	563163	53.706610173987	0
347	563624	53.714982573638	0
347	564054	53.719982573638	0
347	564888	53.726934601854	0
347	565335	53.731934601854	0
347	565747	53.736934601854	0
347	565756	53.741934601854	0
347	567412	53.776983405321	0
347	567413	53.781983405321	0
347	567872	53.794919575906	0
347	567873	53.799919575906	0
347	568303	53.81908742375	0
347	568304	53.82408742375	0
347	568614	54.505	1
347	569723	54.51	42
347	571814	54.515	0
347	573304	54.52	0
347	574406	54.525	0
347	575284	54.53	0
347	576805	54.535	0
347	578037	54.54	0
347	579182	54.545	0
347	581138	54.555087353357	0
347	582405	54.560087353357	0
347	584725	54.570604535547	0
347	585889	54.575604535547	0
347	586779	54.580604535547	0
347	588070	54.585604535547	0
347	588820	54.590604535547	0
347	590021	54.597413140241	0
347	590922	54.602413140241	0
347	592201	54.607413140241	0
347	593041	54.612413140241	0
347	594964	54.620617518368	0
347	596230	54.625617518368	0
347	597008	54.630617518368	0
347	598143	54.637743363603	0
347	599195	54.642743363603	0
347	600698	54.649623389861	0
347	601263	54.654623389861	0
347	602304	54.659623389861	0
347	603224	54.664623389861	0
347	604470	54.669623389861	0
347	605735	54.674623389861	0
347	606747	54.679623389861	0
347	607614	54.684623389861	0
347	608507	54.689623389861	0
347	609784	54.694854517966	0
347	610635	54.699854517966	0
347	612332	54.709120937569	0
347	613616	54.714120937569	0
347	614633	54.719120937569	0
347	615708	54.724120937569	0
347	616712	54.729120937569	0
347	617447	54.734120937569	0
347	619708	54.741597000988	0
347	620458	54.746597000988	0
347	621634	54.751597000988	0
347	622372	54.756597000988	0
347	623338	54.761597000988	0
347	624704	54.766597000988	0
347	625765	54.771597000988	0
347	626761	54.776597000988	0
347	627493	54.781597000988	0
347	628364	54.786597000988	0
347	629363	54.791597000988	0
347	630212	54.796597000988	0
347	630967	54.801597000988	0
347	632117	54.808152619598	0
347	632644	54.813152619598	0
347	633516	54.818152619598	0
347	635242	54.8309576804	0
347	635933	54.8359576804	0
347	636474	54.8409576804	0
347	638027	54.853422355517	0
347	638464	54.858422355517	0
347	639117	54.863422355517	0
347	640012	54.868422355517	0
347	640630	54.873422355517	0