file 214447 1353539597                                          
version 2
run AODVScenario_1f-23-20121121-14:48:06-2232
attr configname AODVScenario_1f
attr datetime 20121121-14:48:06
attr experiment AODVScenario_1f
attr inifile AODV.ini
attr iterationvars $numNodes=73
attr iterationvars2 "$numNodes=73, $repetition=0"
attr measurement $numNodes=73
attr network csma802154net
attr numNodes 73
attr processid 2232
attr repetition 0
attr replication #0
attr resultdir results
attr runnumber 23
attr seedset 23
vector 303  csma802154net.dataCentricNetworkMan  RREQPacketFrequency  ETV
303	7810 31346 804 1708302 1.005 7273.087924187324 1120 0 80 1244 58122
vector 304  csma802154net.dataCentricNetworkMan  RERRPacketFrequency  ETV
304	39156 31314 804 1708302 1.005 7273.087924187324 1120 0 0 0 0
vector 305  csma802154net.dataCentricNetworkMan  DiscoveryPacketFrequency  ETV
305	70470 31314 804 1708302 1.005 7273.087924187324 1120 0 0 0 0
vector 306  csma802154net.dataCentricNetworkMan  RegisterPacketFrequency  ETV
306	101784 31314 804 1708302 1.005 7273.087924187324 1120 0 1 12 12
vector 307  csma802154net.dataCentricNetworkMan  RReplyPacketFrequency  ETV
307	133098 31326 804 1708302 1.005 7273.087924187324 1120 0 79 1135 30021
vector 308  csma802154net.dataCentricNetworkMan  AODVDataPacketFrequency  ETV
308	164424 31328 804 1708302 1.005 7273.087924187324 1120 0 77 1086 25554
vector 315  csma802154net.dataCentricNetworkMan  pendingRegistrationVector  ETV
315	208054 525 23072 437130 43.5 54.705059487025 22 1 3 41 87
vector 314  csma802154net.dataCentricNetworkMan  pendingRREQVector  ETV
314	206769 1285 23077 432401 43.50001 54.651607050682 46 0 1 19 19
vector 312  csma802154net.dataCentricNetworkMan  PendingDataPacketsVector  ETV
312	195752 11017 446004 1708120 70 7273.078324212454 364 0 3 390 702
vector 323  csma802154net.fixhost[7].udpApp  "End-to-end delay"  ETV
323	209757 589 446643 1693870 70.008676013554 7270.008036013554 13 0.007396013555 0.012836013555 0.113428176212 0.0010138234429834
vector 300  csma802154net.dataCentricNetworkMan  dataPacketE2EDelay  ETV
300	1942 5868 446643 1708120 70.008676013554 7273.078324212454 130 0.007396013555 0.099308159911 4.88299640967 0.24203952907616
vector 324  csma802154net.fixhost[8].udpApp  "End-to-end delay"  ETV
324	210346 589 447388 1694615 70.019156043651 7270.016276043651 13 0.015316043653 0.021396043653 0.229828567481 0.0041001412331079
vector 317  csma802154net.fixhost[1].udpApp  "End-to-end delay"  ETV
317	208579 589 449240 1697460 71.017236056567 7271.034692056566 13 0.017236056567 0.056060056567 0.351452735367 0.011159514016987
vector 318  csma802154net.fixhost[2].udpApp  "End-to-end delay"  ETV
318	209168 589 450392 1696699 71.049940083407 7271.024556083406 13 0.019116083405 0.049940083407 0.368573084284 0.011972656634706
vector 329  csma802154net.fixhost[13].udpApp  "End-to-end delay"  ETV
329	212107 581 450769 1697845 71.05196410637 7271.040052106369 13 0.02451610637 0.05637210637 0.5535733828 0.025268232662209
vector 325  csma802154net.fixhost[9].udpApp  "End-to-end delay"  ETV
325	210935 583 453603 1700680 72.027396081521 7272.035356110691 13 0.025476081521 0.036636110691 0.4006292859 0.012510767944199
vector 327  csma802154net.fixhost[11].udpApp  "End-to-end delay"  ETV
327	211518 589 454343 1701970 72.034964108252 7272.068772130196 13 0.034964108252 0.068772130196 0.625413586294 0.032095649925678
vector 342  csma802154net.fixhost[26].udpApp  "End-to-end delay"  ETV
342	213269 589 458231 1706159 73.050316140507 7273.045124140508 13 0.038476140507 0.071860140501 0.651077826596 0.03437534272203
vector 341  csma802154net.fixhost[25].udpApp  "End-to-end delay"  ETV
341	212688 581 459704 1707733 73.084132128157 7273.072924187324 13 0.029276096967 0.084132128157 0.616021562863 0.034687747086697
vector 350  csma802154net.fixhost[34].udpApp  "End-to-end delay"  ETV
350	213858 589 460091 1708120 73.088572153287 7273.078324212454 13 0.050276191101 0.099308159911 0.972998201873 0.074855653407565
