file 245727 1353539838                                          
version 2
run AODVScenario_1f-44-20121121-14:53:57-7316
attr configname AODVScenario_1f
attr datetime 20121121-14:53:57
attr experiment AODVScenario_1f
attr inifile AODV.ini
attr iterationvars $numNodes=94
attr iterationvars2 "$numNodes=94, $repetition=0"
attr measurement $numNodes=94
attr network csma802154net
attr numNodes 94
attr processid 7316
attr repetition 0
attr replication #0
attr resultdir results
attr runnumber 44
attr seedset 44
vector 387  csma802154net.dataCentricNetworkMan  RREQPacketFrequency  ETV
387	8484 36168 854 2388892 1.005 7273.095700106891 1267 0 101 1843 105549
vector 388  csma802154net.dataCentricNetworkMan  RERRPacketFrequency  ETV
388	44652 36128 854 2388892 1.005 7273.095700106891 1267 0 0 0 0
vector 389  csma802154net.dataCentricNetworkMan  DiscoveryPacketFrequency  ETV
389	80780 36128 854 2388892 1.005 7273.095700106891 1267 0 0 0 0
vector 390  csma802154net.dataCentricNetworkMan  RegisterPacketFrequency  ETV
390	116908 36128 854 2388892 1.005 7273.095700106891 1267 0 1 12 12
vector 391  csma802154net.dataCentricNetworkMan  RReplyPacketFrequency  ETV
391	153036 36140 854 2388892 1.005 7273.095700106891 1267 0 79 1428 46966
vector 392  csma802154net.dataCentricNetworkMan  AODVDataPacketFrequency  ETV
392	189176 36144 854 2388892 1.005 7273.095700106891 1267 0 79 1255 39155
vector 399  csma802154net.dataCentricNetworkMan  pendingRegistrationVector  ETV
399	238704 552 36776 771305 43.5 54.907404796885 23 0 2 22 32
vector 398  csma802154net.dataCentricNetworkMan  pendingRREQVector  ETV
398	237294 1410 36781 764780 43.50001 54.819749037344 50 0 1 17 17
vector 396  csma802154net.dataCentricNetworkMan  PendingDataPacketsVector  ETV
396	225320 11974 774720 2388660 70 7273.085700106891 390 0 3 455 871
vector 411  csma802154net.fixhost[11].udpApp  "End-to-end delay"  ETV
411	242203 593 776019 2372572 70.075836053638 7270.013756053638 13 0.011516053637 0.075836053638 0.290076697289 0.010462232926007
vector 384  csma802154net.dataCentricNetworkMan  dataPacketE2EDelay  ETV
384	2013 6471 776019 2388660 70.075836053638 7273.085700106891 143 0.010556035071 0.096900106892 5.335168243847 0.26689674585259
vector 409  csma802154net.fixhost[9].udpApp  "End-to-end delay"  ETV
409	241620 583 776506 2372099 70.07896403507 7270.011836035071 13 0.010556035071 0.07896403507 0.249436455918 0.0087805015436703
vector 415  csma802154net.fixhost[15].udpApp  "End-to-end delay"  ETV
415	243381 579 776985 2373038 70.08180407455 7270.017876074551 13 0.017556074551 0.08180407455 0.394796969156 0.015861397312405
vector 422  csma802154net.fixhost[22].udpApp  "End-to-end delay"  ETV
422	243960 581 780030 2375602 71.02608406517 7271.02295606517 13 0.019756065168 0.079060065169 0.405476847199 0.016040084416919
vector 423  csma802154net.fixhost[23].udpApp  "End-to-end delay"  ETV
423	244541 593 780512 2376558 71.028604094639 7271.032124094638 13 0.026436094638 0.088476094639 0.570461230298 0.03027276853489
vector 424  csma802154net.fixhost[24].udpApp  "End-to-end delay"  ETV
424	245134 593 781956 2378002 71.042212138445 7271.046692138445 13 0.037236138445 0.090460138445 0.738661799772 0.046810900286318
vector 408  csma802154net.fixhost[8].udpApp  "End-to-end delay"  ETV
408	241031 589 784034 2380281 72.019156059921 7272.01915605992 13 0.014676059921 0.03021205992 0.259300778969 0.0054064614909045
vector 413  csma802154net.fixhost[13].udpApp  "End-to-end delay"  ETV
413	242796 585 785483 2381734 72.030524101421 7272.05196410142 13 0.02579610142 0.076212101421 0.487445318467 0.020615213449807
vector 401  csma802154net.fixhost[1].udpApp  "End-to-end delay"  ETV
401	239256 593 790052 2385046 73.037636073506 7273.026756073505 13 0.026756073504 0.075108073504 0.483604955565 0.021402479110537
vector 404  csma802154net.fixhost[4].udpApp  "End-to-end delay"  ETV
404	240438 593 790531 2387691 73.040116138588 7273.062052138586 13 0.033324138588 0.088860138587 0.752885801631 0.046743896312044
vector 402  csma802154net.fixhost[2].udpApp  "End-to-end delay"  ETV
402	239849 589 791491 2388660 73.045132106892 7273.085700106891 13 0.028956106892 0.096900106892 0.703021389583 0.044500810469086
