version 2
run AODVScenario_1f-51-20121121-14:56:18-5700
attr configname AODVScenario_1f
attr datetime 20121121-14:56:18
attr experiment AODVScenario_1f
attr inifile AODV.ini
attr iterationvars $numNodes=101
attr iterationvars2 "$numNodes=101, $repetition=0"
attr measurement $numNodes=101
attr network csma802154net
attr numNodes 101
attr processid 5700
attr repetition 0
attr replication #0
attr resultdir results
attr runnumber 51
attr seedset 51

vector 415  csma802154net.dataCentricNetworkMan  RREQPacketFrequency  ETV
vector 416  csma802154net.dataCentricNetworkMan  RERRPacketFrequency  ETV
vector 417  csma802154net.dataCentricNetworkMan  DiscoveryPacketFrequency  ETV
vector 418  csma802154net.dataCentricNetworkMan  RegisterPacketFrequency  ETV
vector 419  csma802154net.dataCentricNetworkMan  RReplyPacketFrequency  ETV
vector 420  csma802154net.dataCentricNetworkMan  AODVDataPacketFrequency  ETV
vector 427  csma802154net.dataCentricNetworkMan  pendingRegistrationVector  ETV
vector 426  csma802154net.dataCentricNetworkMan  pendingRREQVector  ETV
vector 421  csma802154net.dataCentricNetworkMan  AODVDataLineBreakVector  ETV
vector 424  csma802154net.dataCentricNetworkMan  PendingDataPacketsVector  ETV
vector 434  csma802154net.fixhost[6].udpApp  "End-to-end delay"  ETV
vector 412  csma802154net.dataCentricNetworkMan  dataPacketE2EDelay  ETV
vector 457  csma802154net.fixhost[29].udpApp  "End-to-end delay"  ETV
vector 443  csma802154net.fixhost[15].udpApp  "End-to-end delay"  ETV
vector 440  csma802154net.fixhost[12].udpApp  "End-to-end delay"  ETV
vector 435  csma802154net.fixhost[7].udpApp  "End-to-end delay"  ETV
vector 441  csma802154net.fixhost[13].udpApp  "End-to-end delay"  ETV
412	1059112	70.02907605313	0.02907605313
412	1061951	71.0216760721	0.0216760721
412	1066244	72.027356105402	0.027356105402
412	1066762	72.030524079501	0.030524079501
412	1071042	73.02707609036	0.02707609036
412	1071546	73.028996109148	0.028996109148
412	1197207	670.020116053131	0.020116053131
412	1200046	671.0242360721	0.0242360721
412	1204347	672.030804105403	0.030804105403
412	1204865	672.034932079501	0.034932079501
412	1209156	673.023876109148	0.023876109148
412	1209875	673.050044090361	0.050044090361
412	1335507	1270.017236053131	0.017236053131
412	1338346	1271.0229560721	0.0229560721
412	1341864	1272.0277160795	0.0277160795
412	1343140	1272.039764105402	0.039764105402
412	1346918	1273.024196090361	0.024196090361
412	1347951	1273.029884109148	0.029884109148
412	1473712	1870.019156053131	0.019156053131
412	1476550	1871.0184760721	0.0184760721
412	1480313	1872.027076079501	0.027076079501
412	1481341	1872.032724105403	0.032724105403
412	1485747	1873.02451609036	0.02451609036
412	1486932	1873.048764109147	0.048764109147
412	1612592	2470.017236053131	0.017236053131
412	1615431	2471.0207160721	0.0207160721
412	1619430	2472.0314840795	0.0314840795
412	1620463	2472.054484105401	0.054484105401
412	1624990	2473.028036090361	0.028036090361
412	1625502	2473.051004109148	0.051004109148
412	1751162	3070.018196053132	0.018196053132
412	1754001	3071.0200760721	0.0200760721
412	1757630	3072.026436079501	0.026436079501
412	1758794	3072.034644105403	0.034644105403
412	1762576	3073.027716090361	0.027716090361
412	1763614	3073.035004109148	0.035004109148
412	1889375	3670.017556053131	0.017556053131
412	1892214	3671.0242360721	0.0242360721
412	1895974	3672.028356079499	0.028356079499
412	1897006	3672.035924105401	0.035924105401
412	1900788	3673.026756090359	0.026756090359
412	1901826	3673.034684109147	0.034684109147
412	2027486	4270.01947605313	0.01947605313
412	2030325	4271.020716072099	0.020716072099
412	2034339	4272.027644079499	0.027644079499
412	2035591	4272.052244105399	0.052244105399
412	2040897	4273.024196090359	0.024196090359
412	2041407	4273.027076109146	0.027076109146
412	2167067	4870.017556053132	0.017556053132
412	2169906	4871.0213560721	0.0213560721
412	2173306	4872.025796079501	0.025796079501
412	2174705	4872.034324105403	0.034324105403
412	2179126	4873.02547609036	0.02547609036
412	2179793	4873.051252109147	0.051252109147
412	2305554	5470.015956053132	0.015956053132
412	2308393	5471.022636072099	0.022636072099
412	2312911	5472.031804079501	0.031804079501
412	2313941	5472.059212105402	0.059212105402
412	2318290	5473.025796109148	0.025796109148
412	2319009	5473.050612090361	0.050612090361
412	2444641	6070.015956053132	0.015956053132
412	2447480	6071.0232760721	0.0232760721
412	2451239	6072.022916079501	0.022916079501
412	2452271	6072.032724105403	0.032724105403
412	2456829	6073.028996090361	0.028996090361
412	2457862	6073.054204109148	0.054204109148
412	2583522	6670.015956053131	0.015956053131
412	2586361	6671.0219960721	0.0219960721
412	2590666	6672.035892079499	0.035892079499
412	2591181	6672.043852105402	0.043852105402
412	2594964	6673.02547609036	0.02547609036
412	2596002	6673.031484109147	0.031484109147
412	2721763	7270.017876053132	0.017876053132
412	2724602	7271.0207160721	0.0207160721
412	2728491	7272.029244079501	0.029244079501
412	2729653	7272.060492105403	0.060492105403
412	2734042	7273.028036090361	0.028036090361
412	2735188	7273.052924109146	0.052924109146
415	801	1.005	1
415	811	1.01	0
415	1247	1.017873800941	26
415	2556	1.022873800941	113
415	4251	1.027873800941	67
415	6250	1.032873800941	71
415	8519	1.037873800941	70
415	10962	1.042873800941	69
415	13511	1.047873800941	86
415	15576	1.052873800941	66
415	17032	1.057873800941	89
415	18354	1.062873800941	74
415	20232	1.067873800941	52
415	21154	1.072873800941	61
415	21800	1.077873800941	42
415	22935	1.082873800941	103
415	23751	1.087873800941	55
415	24466	1.092873800941	57
415	25151	1.097873800941	54
415	25896	1.102873800941	88
415	26620	1.107873800941	59
415	27096	1.112873800941	54
415	27695	1.117873800941	57
415	28359	1.122873800941	72
415	28752	1.127873800941	38
415	28753	1.132873800941	0
415	29159	1.142145466002	40
415	29160	1.147145466002	0
415	29611	1.158734193245	49
415	30072	1.163734193245	51
415	30073	1.168734193245	0
415	30874	1.193433466002	78
415	30875	1.198433466002	0
415	39663	43.505	1
415	39774	43.51	0
415	41337	43.5153704939	38
415	42952	43.5203704939	0
415	44273	43.5253704939	0
415	46016	43.53234105672	0
415	47277	43.53734105672	0
415	48598	43.54234105672	0
415	50023	43.548461680517	0
415	50982	43.553461680517	0
415	51824	43.558461680517	0
415	52672	43.563461680517	0
415	53771	43.569466671671	0
415	54655	43.574466671671	0
415	55722	43.579466671671	0
415	57138	43.58468373614	0
415	57995	43.58968373614	0
415	58837	43.59468373614	0
415	59907	43.599845934713	0
415	61218	43.604845934713	0
415	62304	43.609845934713	0
415	63032	43.614845934713	0
415	65939	43.628375977617	0
415	67227	43.633375977617	0
415	68253	43.638375977617	0
415	70141	43.648274144863	0
415	70751	43.653274144863	0
415	72133	43.662146162365	0
415	72840	43.667146162365	0
415	73789	43.672184005244	0
415	74659	43.677184005244	0
415	76558	43.687797032636	0
415	77545	43.692797032636	0
415	78311	43.697797032636	0
415	79372	43.702797032636	0
415	80327	43.707797032636	0
415	82513	43.718817537268	0
415	83468	43.723817537268	0
415	84319	43.728817537268	0
415	85504	43.733817537268	0
415	86708	43.738817537268	0
415	87914	43.743817537268	0
415	88555	43.748817537268	0
415	90205	43.755993295921	0
415	91177	43.760993295921	0
415	92440	43.765993295921	0
415	93219	43.770993295921	0
415	94074	43.775993295921	0
415	95141	43.780993295921	0
415	96015	43.785993295921	0
415	96744	43.790993295921	0
415	97606	43.795993295921	0
415	98927	43.800993295921	0
415	99858	43.805993295921	0
415	103078	43.825169237601	0
415	104368	43.830169237601	0
415	104871	43.835169237601	0
415	105469	43.841090173473	0
415	105854	43.846090173473	0
415	106475	43.851090173473	0
415	107553	43.856090173473	0
415	107914	43.861090173473	0
415	109292	43.877345318483	0
415	109797	43.882345318483	0
415	110635	43.887345318483	0
415	111133	43.892345318483	0
415	112035	43.897345318483	0
415	112146	43.902345318483	0
415	113475	43.92123785651	0
415	113586	43.92623785651	0
415	113979	43.93274859965	0
415	113980	43.93774859965	0
415	114484	43.967781619174	0
415	114485	43.972781619174	0
415	114992	43.985277703134	0
415	114993	43.990277703134	0
415	115212	44.505	1
415	116155	44.51	52
415	118504	44.515	0
415	120464	44.52	0
415	122101	44.525	0
415	123459	44.53	0
415	124756	44.535	0
415	125762	44.54	0
415	129204	44.55205348165	0
415	130081	44.55705348165	0
415	131433	44.56205348165	0
415	132351	44.56705348165	0
415	134283	44.574154354513	0
415	135366	44.579154354513	0
415	141108	44.605757622347	0
415	142280	44.610757622347	0
415	143719	44.615757622347	0
415	144912	44.620757622347	0
415	148168	44.635008247039	0
415	149128	44.640008247039	0
415	151098	44.650045951452	0
415	151997	44.655045951452	0
415	153386	44.661886777164	0
415	154828	44.666886777164	0
415	156298	44.673570032055	0
415	157551	44.678570032055	0
415	158848	44.683570032055	0
415	162794	44.698436749291	0
415	163700	44.703436749291	0
415	164669	44.708436749291	0
415	165953	44.713436749291	0
415	167058	44.718436749291	0
415	168605	44.723436749291	0
415	169548	44.728436749291	0
415	170693	44.733436749291	0
415	171539	44.738436749291	0
415	172529	44.743436749291	0
415	173511	44.748436749291	0
415	174533	44.753436749291	0
415	175725	44.758436749291	0
415	176951	44.764579469591	0
415	178374	44.769579469591	0
415	180986	44.781117482856	0
415	182429	44.786117482856	0
415	183507	44.791117482856	0
415	187478	44.806807851738	0
415	188603	44.811807851738	0
415	192058	44.827965181909	0
415	192947	44.832965181909	0
415	193957	44.837965181909	0
415	195058	44.842965181909	0
415	196638	44.848211302847	0
415	197369	44.853211302847	0
415	199781	44.863129179088	0
415	200623	44.868129179088	0
415	204427	44.888060368201	0
415	205524	44.893060368201	0
415	206609	44.898060368201	0
415	208439	44.905586770328	0
415	209745	44.910586770328	0
415	212053	44.923093155498	0
415	212765	44.928093155498	0
415	213355	44.933093155498	0
415	214565	44.938353662942	0
415	216113	44.943353662942	0
415	217080	44.948353662942	0
415	217945	44.953353662942	0
415	219469	44.958353662942	0
415	220229	44.963353662942	0
415	220749	44.968353662942	0
415	221364	44.973353662942	0
415	222498	44.978353662942	0
415	223082	44.983353662942	0
415	223706	44.993507408478	0
415	224224	44.998507408478	0
415	224914	45.003507408478	0
415	226045	45.010315565852	0
415	226158	45.015315565852	0
415	227623	45.038301937518	0
415	227624	45.043301937518	0
415	229713	45.075337642614	0
415	230074	45.080337642614	0
415	230571	45.087130379962	0
415	230572	45.092130379962	0
415	230685	45.102051278934	0
415	231046	45.107051278934	0
415	231548	45.112051278934	0
415	231549	45.117051278934	0
415	231565	45.505	1
415	232271	45.51	55
415	235331	45.515	0
415	237227	45.52	0
415	238651	45.525	0
415	240193	45.531131428298	0
415	241382	45.536131428298	0
415	243324	45.542703283835	0
415	245179	45.547703283835	0
415	246444	45.552703283835	0
415	248190	45.557703283835	0
415	249413	45.562703283835	0
415	250958	45.567703283835	0
415	252305	45.572703283835	0
415	253424	45.577703283835	0
415	254976	45.582703283835	0
415	256550	45.5886758316	0
415	257620	45.5936758316	0
415	259170	45.5986758316	0
415	260537	45.603888157502	0
415	261739	45.608888157502	0
415	263307	45.613888157502	0
415	264855	45.618888157502	0
415	266189	45.623888157502	0
415	268189	45.631228786114	0
415	269856	45.636228786114	0
415	272403	45.648510844063	0
415	273840	45.653510844063	0
415	278043	45.672741531202	0
415	279502	45.677741531202	0
415	280517	45.682741531202	0
415	281892	45.687741531202	0
415	283240	45.692741531202	0
415	285564	45.702362777959	0
415	286789	45.707362777959	0
415	288197	45.714732294032	0
415	289309	45.719732294032	0
415	290725	45.724732294032	0
415	292198	45.729732294032	0
415	293130	45.734732294032	0
415	294755	45.741045713443	0
415	295736	45.746045713443	0
415	297049	45.751045713443	0
415	297973	45.756045713443	0
415	299473	45.763358144916	0
415	300184	45.768358144916	0
415	301365	45.775054852466	0
415	302566	45.780054852466	0
415	303672	45.785054852466	0
415	305427	45.790054852466	0
415	306639	45.795054852466	0
415	307236	45.800054852466	0
415	308214	45.805054852466	0
415	309310	45.810286226616	0
415	310634	45.815286226616	0
415	311856	45.820286226616	0
415	313188	45.825286226616	0
415	314059	45.830286226616	0
415	315294	45.835286226616	0
415	316603	45.840286226616	0
415	318468	45.848845539468	0
415	319376	45.853845539468	0
415	319882	45.858845539468	0
415	321365	45.863845539468	0
415	322055	45.868845539468	0
415	323622	45.875493316803	0
415	324769	45.880493316803	0
415	326302	45.885493316803	0
415	328048	45.895937499571	0
415	329255	45.900937499571	0
415	330087	45.905937499571	0
415	330899	45.910937499571	0
415	331501	45.915937499571	0
415	334060	45.927009340241	0
415	334948	45.932009340241	0
415	335872	45.937009340241	0
415	336684	45.942029326633	0
415	337406	45.947029326633	0
415	338012	45.952029326633	0
415	338638	45.960236001476	0
415	339127	45.965236001476	0
415	339631	45.970236001476	0
415	340612	45.975236001476	0
415	340742	45.980236001476	0
415	341769	45.990455741326	0
415	342288	45.995455741326	0
415	342987	46.000455741326	0
415	343360	46.005455741326	0
415	343993	46.010455741326	0
415	344755	46.505	1
415	345413	46.51	51
415	348283	46.515	0
415	350276	46.52	0
415	352450	46.528599773221	0
415	353224	46.533599773221	0
415	354755	46.538599773221	0
415	356133	46.543599773221	0
415	357672	46.548599773221	0
415	359432	46.553599773221	0
415	360469	46.558599773221	0
415	365288	46.576847152766	0
415	366508	46.581847152766	0
415	368063	46.586847152766	0
415	369375	46.591847152766	0
415	370829	46.596847152766	0
415	372443	46.60406613937	0
415	373941	46.60906613937	0
415	375517	46.61406613937	0
415	377794	46.623711532715	0
415	378674	46.628711532715	0
415	380028	46.633915924558	0
415	380863	46.638915924558	0
415	382658	46.646591619418	0
415	383636	46.651591619418	0
415	385139	46.656924360046	0
415	385681	46.661924360046	0
415	388281	46.673126076531	0
415	389221	46.678126076531	0
415	389949	46.683126076531	0
415	391205	46.689032958384	0
415	392339	46.694032958384	0
415	393531	46.699032958384	0
415	397765	46.718484904757	0
415	398878	46.723484904757	0
415	402045	46.735130163122	0
415	403196	46.740130163122	0
415	404294	46.745130163122	0
415	406357	46.753510200936	0
415	407213	46.758510200936	0
415	408079	46.763510200936	0
415	410587	46.77404213643	0
415	411747	46.77904213643	0
415	412681	46.78404213643	0
415	413828	46.78904213643	0
415	414686	46.79404213643	0
415	415866	46.79904213643	0
415	417029	46.80404213643	0
415	418511	46.811275169932	0
415	419269	46.816275169932	0
415	420337	46.821275169932	0
415	421247	46.826275169932	0
415	422344	46.831275169932	0
415	423109	46.836275169932	0
415	424772	46.843461554746	0
415	425903	46.848461554746	0
415	426595	46.853461554746	0
415	427604	46.858461554746	0
415	428668	46.863461554746	0
415	429283	46.868461554746	0
415	430394	46.873461554746	0
415	431443	46.878461554746	0
415	432165	46.883461554746	0
415	433193	46.888951890445	0
415	434092	46.893951890445	0
415	434950	46.898951890445	0
415	436048	46.904823225798	0
415	436907	46.909823225798	0
415	438149	46.914894104178	0
415	439159	46.919894104178	0
415	440362	46.924894104178	0
415	441110	46.929894104178	0
415	443009	46.938301783908	0
415	443845	46.943301783908	0
415	445622	46.953096213587	0
415	446529	46.958096213587	0
415	447147	46.963096213587	0
415	448300	46.968096213587	0
415	449029	46.973096213587	0
415	449815	46.978096213587	0
415	450296	46.983096213587	0
415	450825	46.996614994614	0
415	451502	47.001614994614	0
415	454266	47.058335011812	0
415	454267	47.063335011812	0
415	454760	47.080037504597	0
415	454761	47.085037504597	0
415	454768	47.505	1
415	454775	47.51	0
415	457113	47.518303720299	50
415	459571	47.523303720299	0
415	461953	47.531239475807	0
415	463060	47.536239475807	0
415	463797	47.541239475807	0
415	465117	47.546239475807	0
415	467030	47.551357780389	0
415	468103	47.556357780389	0
415	470247	47.561357780389	0
415	471816	47.566357780389	0
415	473079	47.571357780389	0
415	474745	47.576357780389	0
415	475821	47.581357780389	0
415	477230	47.586357780389	0
415	478432	47.591620498146	0
415	479431	47.596620498146	0
415	482926	47.613808373815	0
415	484721	47.618808373815	0
415	485761	47.623808373815	0
415	487018	47.628808373815	0
415	488496	47.633808373815	0
415	489581	47.638808373815	0
415	491621	47.646922655671	0
415	492870	47.651922655671	0
415	494523	47.659386219008	0
415	495920	47.664386219008	0
415	497046	47.669386219008	0
415	499723	47.679583144222	0
415	500720	47.684583144222	0
415	502110	47.690149063905	0
415	503232	47.695149063905	0
415	504661	47.700149063905	0
415	505757	47.705149063905	0
415	508846	47.71998054703	0
415	510191	47.72498054703	0
415	511647	47.72998054703	0
415	512634	47.73498054703	0
415	514078	47.73998054703	0
415	515407	47.74498054703	0
415	516148	47.74998054703	0
415	517542	47.75498054703	0
415	518256	47.75998054703	0
415	519530	47.76498054703	0
415	520701	47.76998054703	0
415	522419	47.77498054703	0
415	523899	47.77998054703	0
415	526519	47.791732247595	0
415	527874	47.796732247595	0
415	529360	47.801732247595	0
415	532510	47.814345463595	0
415	533399	47.819345463595	0
415	534830	47.828142755512	0
415	536126	47.833142755512	0
415	541510	47.860975191527	0
415	542375	47.865975191527	0
415	543616	47.870975191527	0
415	544766	47.875975191527	0
415	545734	47.880975191527	0
415	546726	47.885975191527	0
415	547742	47.890975191527	0
415	548603	47.895975191527	0
415	549545	47.900975191527	0
415	550162	47.905975191527	0
415	551327	47.91148991128	0
415	551999	47.91648991128	0
415	553231	47.921870398646	0
415	554076	47.926870398646	0
415	554860	47.931870398646	0
415	554862	47.936870398646	0
415	555224	47.944634546062	0
415	555748	47.949634546062	0
415	556155	47.954634546062	0
415	556792	47.973425343441	0
415	557298	47.978425343441	0
415	557824	47.983425343441	0
415	558246	47.988425343441	0
415	558759	47.993425343441	0
415	559479	48.008248489557	0
415	559480	48.013248489557	0
415	559493	48.505	1
415	559896	48.51	28
415	561075	48.515	0
415	563114	48.52	0
415	564142	48.525	0
415	565321	48.53	0
415	566632	48.535	0
415	567241	48.54	0
415	569823	48.550160885993	0
415	571041	48.555160885993	0
415	571858	48.560160885993	0
415	573217	48.565160885993	0
415	574528	48.570160885993	0
415	576584	48.579472305793	0
415	577503	48.584472305793	0
415	578876	48.589762179839	0
415	580106	48.594762179839	0
415	581431	48.60177015387	0
415	582567	48.60677015387	0
415	583777	48.61177015387	0
415	585353	48.61677015387	0
415	586749	48.62177015387	0
415	587360	48.62677015387	0
415	589103	48.635636882977	0
415	590686	48.640636882977	0
415	591993	48.645636882977	0
415	593699	48.654368332753	0
415	594715	48.659368332753	0
415	595301	48.664368332753	0
415	599592	48.690490448139	0
415	600312	48.695490448139	0
415	601427	48.700490448139	0
415	602754	48.705490448139	0
415	603463	48.710490448139	0
415	604483	48.715490448139	0
415	605492	48.722031613002	0
415	606443	48.727031613002	0
415	607632	48.732031613002	0
415	608383	48.737031613002	0
415	610556	48.752151636403	0
415	611596	48.757151636403	0
415	612328	48.762547308307	0
415	613422	48.767547308307	0
415	614311	48.772547308307	0
415	614809	48.777547308307	0
415	615702	48.783384609437	0
415	616175	48.788384609437	0
415	617196	48.79540018238	0
415	617705	48.80040018238	0
415	618902	48.80540018238	0
415	619628	48.81040018238	0
415	620658	48.817549047069	0
415	621138	48.822549047069	0
415	621727	48.827622319606	0
415	622856	48.832622319606	0
415	624071	48.839902727147	0
415	624072	48.844902727147	0
415	624905	48.856224330024	0
415	625806	48.861224330024	0
415	626292	48.868216598469	0
415	626294	48.873216598469	0
415	626786	48.881862079851	0
415	626787	48.886862079851	0
415	627044	49.505	1
415	627716	49.51	33
415	630358	49.515	0
415	631621	49.52	0
415	632619	49.525	0
415	633719	49.53	0
415	635259	49.536436868051	0
415	637380	49.541436868051	0
415	638725	49.546436868051	0
415	639730	49.551436868051	0
415	641043	49.556436868051	0
415	641818	49.561436868051	0
415	643615	49.566436868051	0
415	645295	49.571436868051	0
415	646722	49.576436868051	0
415	648066	49.581436868051	0
415	649292	49.586436868051	0
415	649895	49.591436868051	0
415	651028	49.596519629624	0
415	652106	49.601519629624	0
415	653800	49.610426209076	0
415	654660	49.615426209076	0
415	655985	49.62084628486	0
415	656652	49.62584628486	0
415	657883	49.632799517553	0
415	658701	49.637799517553	0
415	660728	49.647688364391	0
415	661803	49.652688364391	0
415	662677	49.657688364391	0
415	663391	49.662688364391	0
415	664285	49.667688364391	0
415	665295	49.672688364391	0
415	666422	49.678355033695	0
415	667042	49.683355033695	0
415	667989	49.689586261427	0
415	668981	49.694586261427	0
415	669971	49.699586261427	0
415	671501	49.712880971285	0
415	672578	49.717880971285	0
415	673629	49.722880971285	0
415	675431	49.734909194132	0
415	676193	49.739909194132	0
415	677208	49.744909194132	0
415	678332	49.749909194132	0
415	679030	49.754909194132	0
415	680533	49.764125390834	0
415	681653	49.769125390834	0
415	682154	49.774125390834	0
415	683865	49.78105593406	0
415	684728	49.78605593406	0
415	685487	49.79105593406	0
415	686676	49.79605593406	0
415	687280	49.80105593406	0
415	687774	49.80605593406	0
415	687888	49.81105593406	0
415	688490	49.816238951837	0
415	688978	49.821238951837	0
415	689089	49.826238951837	0
415	689507	49.831294718779	0
415	689748	49.836294718779	0
415	689991	49.841294718779	0
415	690631	50.505	32
415	691913	50.51	0
415	693467	50.515	0
415	694620	50.52	0
415	696321	50.527722107907	0
415	697532	50.532722107907	0
415	698864	50.537722107907	0
415	699985	50.542722107907	0
415	700942	50.547722107907	0
415	702074	50.552722107907	0
415	702782	50.557722107907	0
415	704031	50.562722107907	0
415	704917	50.567722107907	0
415	706029	50.572722107907	0
415	706779	50.577722107907	0
415	707723	50.582722107907	0
415	708371	50.587722107907	0
415	709299	50.592722107907	0
415	710373	50.597722107907	0
415	711866	50.604452872745	0
415	712944	50.609452872745	0
415	714185	50.614452872745	0
415	715515	50.619452872745	0
415	716674	50.624452872745	0
415	717717	50.629452872745	0
415	718583	50.634452872745	0
415	719367	50.639452872745	0
415	720629	50.644452872745	0
415	721529	50.649452872745	0
415	722159	50.654452872745	0
415	723188	50.659452872745	0
415	724575	50.667325251161	0
415	725537	50.672325251161	0
415	726962	50.680765243793	0
415	727581	50.685765243793	0
415	728682	50.693923979664	0
415	729323	50.698923979664	0
415	730250	50.703923979664	0
415	730797	50.708923979664	0
415	732180	50.716564280063	0
415	732820	50.721564280063	0
415	733884	50.726564280063	0
415	734776	50.732126459327	0
415	735401	50.737126459327	0
415	736393	50.742126459327	0
415	736536	50.747126459327	0
415	737637	50.755034714277	0
415	738659	50.760034714277	0
415	739587	50.765034714277	0
415	740225	50.770034714277	0
415	740928	50.775034714277	0
415	741559	50.780034714277	0
415	742279	50.785034714277	0
415	743043	50.799959245208	0
415	744021	50.804959245208	0
415	744620	50.809959245208	0
415	745345	50.814959245208	0
415	745940	50.819959245208	0
415	748215	50.846458709388	0
415	748326	50.851458709388	0
415	750167	50.875146722654	0
415	750544	50.880146722654	0
415	751277	50.886255037186	0
415	751518	50.891255037186	0
415	752776	50.904791065431	0
415	753022	50.909791065431	0
415	756074	50.986122639646	0
415	756317	50.991122639646	0
415	756523	51.003482072024	0
415	756524	51.008482072024	0
415	756592	51.505	1
415	756995	51.51	37
415	758682	51.515	0
415	760250	51.52	0
415	762262	51.525	0
415	763518	51.53	0
415	764486	51.535	0
415	765650	51.54	0
415	766682	51.545	0
415	768464	51.55	0
415	769567	51.555	0
415	771283	51.56	0
415	772321	51.565	0
415	773305	51.57	0
415	774546	51.576876991943	0
415	775549	51.581876991943	0
415	777029	51.587666499304	0
415	777902	51.592666499304	0
415	778912	51.597899840896	0
415	779776	51.602899840896	0
415	780801	51.607899840896	0
415	782172	51.612899840896	0
415	783282	51.617899840896	0
415	784412	51.622899840896	0
415	785422	51.627899840896	0
415	786407	51.632899840896	0
415	787399	51.637899840896	0
415	788552	51.642899840896	0
415	789576	51.647899840896	0
415	790354	51.652899840896	0
415	791088	51.657899840896	0
415	792914	51.668074791396	0
415	793675	51.673074791396	0
415	794448	51.678074791396	0
415	795201	51.683074791396	0
415	796592	51.688570347605	0
415	797340	51.693570347605	0
415	798901	51.702074654764	0
415	799992	51.707074654764	0
415	800930	51.713339824916	0
415	801917	51.718339824916	0
415	802869	51.723339824916	0
415	804747	51.732431165352	0
415	805284	51.737431165352	0
415	806587	51.742431165352	0
415	807733	51.747431165352	0
415	809490	51.75778546737	0
415	810257	51.76278546737	0
415	811252	51.76778546737	0
415	812237	51.77278546737	0
415	812737	51.77778546737	0
415	813864	51.78278546737	0
415	815120	51.790379387584	0
415	816100	51.795379387584	0
415	817285	51.800379387584	0
415	817798	51.805379387584	0
415	818889	51.810379387584	0
415	819905	51.815379387584	0
415	820521	51.820379387584	0
415	821305	51.825379387584	0
415	822202	51.830379387584	0
415	823044	51.835379387584	0
415	823558	51.840379387584	0
415	824057	51.845379387584	0
415	825164	51.856373895735	0
415	825908	51.861373895735	0
415	826661	51.866373895735	0
415	827578	51.872636606459	0
415	828198	51.877636606459	0
415	828719	51.882636606459	0
415	829352	51.887636606459	0
415	830473	51.895895195408	0
415	831099	51.900895195408	0
415	831608	51.905895195408	0
415	832353	51.910895195408	0
415	832632	51.915895195408	0
415	833121	51.927206948263	0
415	833122	51.932206948263	0
415	833610	51.937875994751	0
415	833611	51.942875994751	0
415	834607	51.959990659086	0
415	835269	51.964990659086	0
415	836143	51.969990659086	0
415	836881	52.505	1
415	836998	52.51	0
415	838004	52.516802909926	11
415	838870	52.521802909926	0
415	840022	52.526802909926	0
415	841257	52.531802909926	0
415	842040	52.536802909926	0
415	843218	52.541802909926	0
415	843950	52.546802909926	0
415	844326	52.551802909926	0
415	845513	52.556802909926	0
415	846097	52.561802909926	0
415	846925	52.56887166015	0
415	847064	52.57387166015	0
415	847666	52.57887166015	0
415	848374	52.58387166015	0
415	849187	52.58887166015	0
415	850799	52.600115124172	0
415	851532	52.605115124172	0
415	853357	52.628178459808	0
415	853473	52.633178459808	0
415	854197	52.639319676269	0
415	855301	52.644319676269	0
415	855781	52.649319676269	0
415	855892	52.654319676269	0
415	857586	52.663544772641	0
415	858468	52.668544772641	0
415	859437	52.673544772641	0
415	859554	52.678544772641	0
415	859980	52.683544772641	0
415	860505	52.688544772641	0
415	861354	52.693544772641	0
415	861946	52.698544772641	0
415	861947	52.703544772641	0
415	862472	52.712019121066	0
415	863015	52.717019121066	0
415	863504	52.722019121066	0
415	863505	52.727019121066	0
415	863765	53.505	1
415	863882	53.51	0
415	865761	53.515844876829	38
415	867380	53.520844876829	0
415	869348	53.525844876829	0
415	871560	53.530844876829	0
415	873242	53.535844876829	0
415	874577	53.540844876829	0
415	876101	53.545844876829	0
415	877707	53.550844876829	0
415	879629	53.555844876829	0
415	880563	53.560844876829	0
415	881709	53.565844876829	0
415	882962	53.570844876829	0
415	884180	53.575844876829	0
415	885256	53.580844876829	0
415	887041	53.585945641817	0
415	888851	53.590945641817	0
415	890327	53.595945641817	0
415	891424	53.600945641817	0
415	894088	53.610602872532	0
415	894830	53.615602872532	0
415	896527	53.620602872532	0
415	902264	53.648306345417	0
415	903398	53.653306345417	0
415	904990	53.658306345417	0
415	906191	53.663306345417	0
415	906710	53.668306345417	0
415	907881	53.674433282665	0
415	909109	53.679433282665	0
415	912170	53.694773363082	0
415	913962	53.699773363082	0
415	915078	53.704773363082	0
415	918416	53.724457432303	0
415	919348	53.729457432303	0
415	920100	53.734457432303	0
415	921125	53.739457432303	0
415	923207	53.748767710505	0
415	924265	53.753767710505	0
415	925262	53.758767710505	0
415	926785	53.764645014109	0
415	927444	53.769645014109	0
415	929355	53.779962114577	0
415	930112	53.784962114577	0
415	931518	53.793242828275	0
415	932270	53.798242828275	0
415	932897	53.803242828275	0
415	934026	53.808242828275	0
415	934950	53.813242828275	0
415	935689	53.818242828275	0
415	936187	53.823242828275	0
415	936905	53.828242828275	0
415	937911	53.833242828275	0
415	939438	53.845060433232	0
415	940099	53.850060433232	0
415	941397	53.859681212701	0
415	942312	53.864681212701	0
415	943543	53.869681212701	0
415	944308	53.874681212701	0
415	945405	53.879681212701	0
415	946338	53.884681212701	0
415	946946	53.889681212701	0
415	947481	53.894681212701	0
415	948125	53.899681212701	0
415	948626	53.904681212701	0
415	948737	53.909681212701	0
415	949156	53.915207406914	0
415	949272	53.920207406914	0
415	949681	53.926119251537	0
415	950163	53.931119251537	0
415	950164	53.936119251537	0
415	950411	54.505	1
415	951279	54.51	41
415	953935	54.515	0
415	955749	54.52	0
415	957450	54.525	0
415	958423	54.53	0
415	959810	54.535	0
415	961096	54.54	0
415	962137	54.545	0
415	964037	54.550572838135	0
415	965422	54.555572838135	0
415	966807	54.560572838135	0
415	967573	54.565572838135	0
415	969483	54.574112680449	0
415	970732	54.579112680449	0
415	972804	54.584112680449	0
415	974190	54.589112680449	0
415	976925	54.604297603343	0
415	978622	54.609297603343	0
415	981033	54.614297603343	0
415	982053	54.619297603343	0
415	983270	54.624297603343	0
415	985165	54.63104105602	0
415	986081	54.63604105602	0
415	987672	54.641547241021	0
415	989321	54.646547241021	0
415	990986	54.651592234548	0
415	992452	54.656592234548	0
415	994531	54.661592234548	0
415	997240	54.675580521822	0
415	999156	54.680580521822	0
415	1000532	54.685580521822	0
415	1001341	54.690580521822	0
415	1002107	54.695580521822	0
415	1004164	54.704422304929	0
415	1005863	54.709422304929	0
415	1007492	54.71499759924	0
415	1008510	54.71999759924	0
415	1009902	54.72499759924	0
415	1010931	54.72999759924	0
415	1011718	54.73499759924	0
415	1012871	54.73999759924	0
415	1013990	54.74499759924	0
415	1014898	54.74999759924	0
415	1016225	54.755445630239	0