version 2
run AODVScenario_1f-31-20121121-14:50:10-5560
attr configname AODVScenario_1f
attr datetime 20121121-14:50:10
attr experiment AODVScenario_1f
attr inifile AODV.ini
attr iterationvars $numNodes=81
attr iterationvars2 "$numNodes=81, $repetition=0"
attr measurement $numNodes=81
attr network csma802154net
attr numNodes 81
attr processid 5560
attr repetition 0
attr replication #0
attr resultdir results
attr runnumber 31
attr seedset 31

vector 335  csma802154net.dataCentricNetworkMan  RREQPacketFrequency  ETV
vector 336  csma802154net.dataCentricNetworkMan  RERRPacketFrequency  ETV
vector 337  csma802154net.dataCentricNetworkMan  DiscoveryPacketFrequency  ETV
vector 338  csma802154net.dataCentricNetworkMan  RegisterPacketFrequency  ETV
vector 339  csma802154net.dataCentricNetworkMan  RReplyPacketFrequency  ETV
vector 340  csma802154net.dataCentricNetworkMan  AODVDataPacketFrequency  ETV
vector 347  csma802154net.dataCentricNetworkMan  pendingRegistrationVector  ETV
vector 346  csma802154net.dataCentricNetworkMan  pendingRREQVector  ETV
vector 344  csma802154net.dataCentricNetworkMan  PendingDataPacketsVector  ETV
vector 365  csma802154net.fixhost[17].udpApp  "End-to-end delay"  ETV
vector 332  csma802154net.dataCentricNetworkMan  dataPacketE2EDelay  ETV
vector 360  csma802154net.fixhost[12].udpApp  "End-to-end delay"  ETV
vector 367  csma802154net.fixhost[19].udpApp  "End-to-end delay"  ETV
vector 355  csma802154net.fixhost[7].udpApp  "End-to-end delay"  ETV
vector 354  csma802154net.fixhost[6].udpApp  "End-to-end delay"  ETV
vector 356  csma802154net.fixhost[8].udpApp  "End-to-end delay"  ETV
vector 349  csma802154net.fixhost[1].udpApp  "End-to-end delay"  ETV
vector 357  csma802154net.fixhost[9].udpApp  "End-to-end delay"  ETV
vector 350  csma802154net.fixhost[2].udpApp  "End-to-end delay"  ETV
vector 364  csma802154net.fixhost[16].udpApp  "End-to-end delay"  ETV
vector 366  csma802154net.fixhost[18].udpApp  "End-to-end delay"  ETV
vector 369  csma802154net.fixhost[21].udpApp  "End-to-end delay"  ETV
332	516470	70.013436035476	0.013436035476
332	516867	70.016316035862	0.016316035862
332	517270	70.02004405475	0.02004405475
332	521303	71.040076138306	0.040076138306
332	522541	71.066212111745	0.066212111745
332	522955	71.070364175502	0.070364175502
332	525195	72.022636065531	0.022636065531
332	526425	72.033404096189	0.033404096189
332	527275	72.047340078784	0.047340078784
332	530537	73.036316097353	0.036316097353
332	531355	73.054524092424	0.054524092424
332	533015	73.074492152527	0.074492152527
332	633374	670.014396035478	0.014396035478
332	633768	670.019796054752	0.019796054752
332	634168	670.030252035864	0.030252035864
332	637021	671.026116068213	0.026116068213
332	638401	671.034676094774	0.034676094774
332	639234	671.041036124279	0.041036124279
332	641474	672.020396065531	0.020396065531
332	642905	672.032124078783	0.032124078783
332	643745	672.061740096188	0.061740096188
332	646990	673.030876097353	0.030876097353
332	647977	673.049724092424	0.049724092424
332	649641	673.086332152526	0.086332152526
332	749996	1270.010876035478	0.010876035478
332	751131	1270.062252035864	0.062252035864
332	752114	1270.092468054752	0.092468054752
332	755143	1271.027076068212	0.027076068212
332	756776	1271.040012087078	0.040012087078
332	757190	1271.044452116583	0.044452116583
332	759828	1272.01943606553	0.01943606553
332	761080	1272.028532096188	0.028532096188
332	761505	1272.031412078783	0.031412078783
332	765206	1273.029596097353	0.029596097353
332	767258	1273.066492152526	0.066492152526
332	767672	1273.072796092424	0.072796092424
332	868135	1870.012476035865	0.012476035865
332	868538	1870.017524035478	0.017524035478
332	868928	1870.021004054752	0.021004054752
332	871671	1871.026436068213	0.026436068213
332	873797	1871.071332108846	0.071332108846
332	874211	1871.078260146042	0.078260146042
332	876619	1872.022636065531	0.022636065531
332	878050	1872.050684078784	0.050684078784
332	878893	1872.079340096189	0.079340096189
332	882577	1873.028924092422	0.028924092422
332	882994	1873.03144409735	0.03144409735
332	885209	1873.085692152524	0.085692152524
332	985940	2470.037364035478	0.037364035478
332	986336	2470.041772035865	0.041772035865
332	986739	2470.047172054752	0.047172054752
332	989579	2471.027716068213	0.027716068213
332	990761	2471.036916094774	0.036916094774
332	992403	2471.06713212428	0.06713212428
332	994830	2472.022636065531	0.022636065531
332	996057	2472.030556089482	0.030556089482
332	997325	2472.059284106887	0.059284106887
332	1000367	2473.025796092424	0.025796092424
332	1001814	2473.038156152527	0.038156152527
332	1003044	2473.067780097353	0.067780097353
332	1103767	3070.037684035864	0.037684035864
332	1104169	3070.041772035477	0.041772035477
332	1104559	3070.046532054751	0.046532054751
332	1107799	3071.028316089978	0.028316089978
332	1109414	3071.040676153735	0.040676153735
332	1110239	3071.064572116539	0.064572116539
332	1112644	3072.025836065531	0.025836065531
332	1113880	3072.052604096189	0.052604096189
332	1114730	3072.066540078784	0.066540078784
332	1118004	3073.034396097353	0.034396097353
332	1119193	3073.061812092423	0.061812092423
332	1120449	3073.070972152526	0.070972152526
332	1220892	3670.013116035864	0.013116035864
332	1221295	3670.018804035477	0.018804035477
332	1221685	3670.02228405475	0.02228405475
332	1224737	3671.027076068213	0.027076068213
332	1225918	3671.034004087079	0.034004087079
332	1226756	3671.042604116585	0.042604116585
332	1229164	3672.022316065531	0.022316065531
332	1230396	3672.048124096189	0.048124096189
332	1231244	3672.054772078784	0.054772078784
332	1234833	3673.030876097352	0.030876097352
332	1235517	3673.033084092424	0.033084092424
332	1236774	3673.043844152527	0.043844152527
332	1337133	4270.013116035477	0.013116035477
332	1337527	4270.017556054751	0.017556054751
332	1337927	4270.025132035863	0.025132035863
332	1340764	4271.024196068212	0.024196068212
332	1342387	4271.058572087077	0.058572087077
332	1343622	4271.071260116583	0.071260116583
332	1346413	4272.028676096185	0.028676096185
332	1348245	4272.080692087295	0.080692087295
332	1349102	4272.091140111245	0.091140111245
332	1352798	4273.03375609735	0.03375609735
332	1354432	4273.051524152522	0.051524152522
332	1354847	4273.057012092421	0.057012092421
332	1455222	4870.011516035478	0.011516035478
332	1455615	4870.015956054752	0.015956054752
332	1456010	4870.018236035865	0.018236035865
332	1459241	4871.028956089979	0.028956089979
332	1460047	4871.03787611654	0.03787611654
332	1461283	4871.057324116586	0.057324116586
332	1463704	4872.021036065531	0.021036065531
332	1464737	4872.028956106887	0.028956106887
332	1465578	4872.034324089482	0.034324089482
332	1469274	4873.024836092424	0.024836092424
332	1471517	4873.059844152527	0.059844152527
332	1473140	4873.086660097352	0.086660097352
332	1573574	5470.012156035865	0.012156035865
332	1573977	5470.017204035477	0.017204035477
332	1574367	5470.021324054751	0.021324054751
332	1577025	5471.025796068212	0.025796068212
332	1578623	5471.038444108845	0.038444108845
332	1579461	5471.04601214604	0.04601214604
332	1582075	5472.024836096188	0.024836096188
332	1582925	5472.037492087296	0.037492087296
332	1583783	5472.055372111247	0.055372111247
332	1587890	5473.034252097353	0.034252097353
332	1588296	5473.042292092423	0.042292092423
332	1589974	5473.071612152526	0.071612152526
332	1690333	6070.013756035477	0.013756035477
332	1690723	6070.017236054751	0.017236054751
332	1691122	6070.020084035864	0.020084035864
332	1693872	6071.02867606821	0.02867606821
332	1696001	6071.071580108844	0.071580108844
332	1696415	6071.076660146039	0.076660146039
332	1699654	6072.029916111246	0.029916111246
332	1700098	6072.038452087296	0.038452087296
332	1700929	6072.050364096188	0.050364096188
332	1704173	6073.029276097352	0.029276097352
332	1705389	6073.051324092424	0.051324092424
332	1706644	6073.064324152527	0.064324152527
332	1807006	6670.011836035476	0.011836035476
332	1807399	6670.014004035864	0.014004035864
332	1807803	6670.02036405475	0.02036405475
332	1810649	6671.026116068213	0.026116068213
332	1811837	6671.033396094774	0.033396094774
332	1812864	6671.04195613197	0.04195613197
332	1815477	6672.020396065529	0.020396065529
332	1816427	6672.027004078783	0.027004078783
332	1817353	6672.056620096188	0.056620096188
332	1821037	6673.031164092424	0.031164092424
332	1821456	6673.034644097353	0.034644097353
332	1823088	6673.067772152527	0.067772152527
332	1923531	7270.011196035865	0.011196035865
332	1923933	7270.014644035477	0.014644035477
332	1924324	7270.022604054751	0.022604054751
332	1926980	7271.027396068212	0.027396068212
332	1928266	7271.036564087078	0.036564087078
332	1929593	7271.070052116584	0.070052116584
332	1932005	7272.021356065531	0.021356065531
332	1933772	7272.050364078784	0.050364078784
332	1934699	7272.079020096189	0.079020096189
332	1939117	7273.041604152524	0.041604152524
332	1940046	7273.05210009735	0.05210009735
332	1940453	7273.066220092422	0.066220092422
335	737	1.005	1
335	979	1.01	22
335	1371	1.015	35
335	2369	1.02	68
335	4028	1.025	101
335	6064	1.03	82
335	7773	1.035	62
335	9456	1.04	43
335	10826	1.045	67
335	12025	1.05	62
335	12878	1.055	47
335	13758	1.06	81
335	14507	1.065	56
335	15559	1.07	90
335	16116	1.075	40
335	16524	1.08	28
335	16982	1.085	44
335	17423	1.09	35
335	17973	1.095	60
335	18264	1.1	25
335	18365	1.105	0
335	18856	1.110050311268	50
335	19127	1.115050311268	21
335	19448	1.120050311268	31
335	19449	1.125050311268	0
335	19725	1.135376459149	22
335	19726	1.140376459149	0
335	19997	1.153522335612	21
335	20088	1.158522335612	0
335	20349	1.163553954568	37
335	20353	1.168553954568	0
335	20686	1.175881596758	34
335	20687	1.180881596758	0
335	21008	1.189957095009	31
335	21009	1.194957095009	0
335	21280	1.221450335612	21
335	21281	1.226450335612	0
335	28329	43.505	1
335	28720	43.51	29
335	29782	43.515	0
335	31311	43.52	0
335	32352	43.525	0
335	33115	43.53	0
335	33495	43.535	0
335	34028	43.54	0
335	34849	43.545	0
335	35698	43.55	0
335	36182	43.555	0
335	36965	43.561808249474	0
335	37930	43.566808249474	0
335	38852	43.571808249474	0
335	40145	43.577670963976	0
335	40929	43.582670963976	0
335	44224	43.606352733127	0
335	44715	43.611352733127	0
335	45587	43.616732052729	0
335	46297	43.621732052729	0
335	46910	43.626732052729	0
335	49051	43.638806691993	0
335	49727	43.643806691993	0
335	50307	43.648806691993	0
335	51385	43.653806691993	0
335	52057	43.658806691993	0
335	53323	43.67121841058	0
335	54013	43.67621841058	0
335	54398	43.68121841058	0
335	55287	43.688621791347	0
335	56134	43.693621791347	0
335	57488	43.705985211016	0
335	57978	43.710985211016	0
335	59051	43.718366436635	0
335	59431	43.723366436635	0
335	60642	43.731705159402	0
335	61244	43.736705159402	0
335	62006	43.741705159402	0
335	62686	43.746705159402	0
335	63177	43.751705159402	0
335	63896	43.757234250736	0
335	64570	43.762234250736	0
335	65212	43.767234250736	0
335	66251	43.772234250736	0
335	66719	43.777234250736	0
335	68281	43.794654991546	0
335	68592	43.799654991546	0
335	68911	43.804654991546	0
335	69432	43.809654991546	0
335	70225	43.827908346122	0
335	70714	43.832908346122	0
335	71397	43.837908346122	0
335	72179	43.842908346122	0
335	72868	43.852989808733	0
335	72974	43.857989808733	0
335	73662	43.867560265429	0
335	74130	43.872560265429	0
335	74131	43.877560265429	0
335	75189	43.942154250736	0
335	75295	43.947154250736	0
335	75465	44.505	1
335	75475	44.51	0
335	76502	44.517607918897	19
335	77543	44.522607918897	0
335	78529	44.527607918897	0
335	79118	44.532761490009	0
335	79621	44.537761490009	0
335	80031	44.542761490009	0
335	80622	44.547761490009	0
335	81971	44.557462047039	0
335	82537	44.562462047039	0
335	83042	44.567462047039	0
335	83605	44.572462047039	0
335	84535	44.577462047039	0
335	85122	44.582462047039	0
335	85948	44.587462047039	0
335	86998	44.595714847039	0
335	87930	44.600714847039	0
335	88441	44.605714847039	0
335	89109	44.610714847039	0
335	89787	44.615714847039	0
335	90443	44.620714847039	0
335	91976	44.632633483309	0
335	92569	44.637633483309	0
335	93172	44.642633483309	0
335	94012	44.647633483309	0
335	94991	44.655363621082	0
335	95543	44.660363621082	0
335	97167	44.675077322415	0
335	97839	44.680077322415	0
335	97930	44.685077322415	0
335	98620	44.690772265573	0
335	98626	44.695772265573	0
335	99930	44.708880877014	0
335	99931	44.713880877014	0
335	100322	44.734414552242	0
335	100323	44.739414552242	0
335	100493	45.505	1
335	100500	45.51	0
335	101936	45.519047992453	26
335	103165	45.524047992453	0
335	104781	45.533874160375	0
335	105336	45.538874160375	0
335	106365	45.543874160375	0
335	107312	45.548874160375	0
335	108197	45.553874160375	0
335	109093	45.558874160375	0
335	109792	45.563874160375	0
335	110676	45.568874160375	0
335	111275	45.573874160375	0
335	112160	45.578874160375	0
335	112646	45.583874160375	0
335	113539	45.588960453964	0
335	114047	45.593960453964	0
335	115177	45.598960453964	0
335	115586	45.603960453964	0
335	116584	45.608960453964	0
335	117153	45.613960453964	0
335	117844	45.619132036948	0
335	118323	45.624132036948	0
335	118861	45.629132036948	0
335	119361	45.634132036948	0
335	120323	45.639132036948	0
335	120829	45.644132036948	0
335	120920	45.649132036948	0
335	121330	45.654348612637	0
335	122060	45.659348612637	0
335	122554	45.664348612637	0
335	123132	45.669348612637	0
335	124118	45.684467659732	0
335	124412	45.689467659732	0
335	124505	45.694467659732	0
335	125303	45.701094653811	0
335	125698	45.706094653811	0
335	126006	45.711094653811	0
335	126383	45.716094653811	0
335	126850	45.721094653811	0
335	127445	45.726094653811	0
335	127998	45.731094653811	0
335	128102	45.736094653811	0
335	128583	45.75524751286	0
335	128905	45.76024751286	0
335	129387	45.76524751286	0
335	129668	45.77024751286	0
335	129759	45.77524751286	0
335	130070	45.781375866733	0
335	130071	45.786375866733	0
335	130456	45.819555679229	0
335	130457	45.824555679229	0
335	130723	46.505	1
335	131247	46.51	15
335	132190	46.515	0
335	133388	46.52	0
335	133675	46.525	0
335	134373	46.530297207525	0
335	134870	46.535297207525	0
335	135674	46.540297207525	0
335	136748	46.545297207525	0
335	137224	46.550297207525	0
335	138195	46.555297207525	0
335	138578	46.560297207525	0
335	139054	46.565297207525	0
335	139637	46.570297207525	0
335	140296	46.575297207525	0
335	140674	46.580297207525	0
335	141441	46.585297207525	0
335	141717	46.590297207525	0
335	142573	46.595663372298	0
335	143062	46.600663372298	0
335	143064	46.605663372298	0
335	144200	46.618677128379	0
335	144291	46.623677128379	0
335	144578	46.629464065781	0
335	144580	46.634464065781	0
335	145743	46.655724998886	0
335	145744	46.660724998886	0
335	146545	46.671071930692	0
335	146725	46.676071930692	0
335	147314	46.708455942785	0
335	147706	46.713455942785	0
335	148672	46.723011523733	0
335	148864	46.728011523733	0
335	149250	46.749159903422	0
335	149251	46.754159903422	0
335	149623	46.77142391808	0
335	149624	46.77642391808	0
335	150000	46.804435556742	0
335	150001	46.809435556742	0
335	150267	47.505	1
335	150704	47.51	16
335	151672	47.515	0
335	152502	47.52	0
335	153344	47.525097736932	0
335	153938	47.530097736932	0
335	154130	47.535097736932	0
335	154651	47.540097736932	0
335	155431	47.545097736932	0
335	155926	47.550097736932	0
335	156881	47.555097736932	0
335	157180	47.560097736932	0
335	158179	47.567476164669	0
335	158687	47.572476164669	0
335	159993	47.579586553868	0
335	160852	47.584586553868	0
335	161159	47.589586553868	0
335	161625	47.594586553868	0
335	162324	47.599586553868	0
335	162693	47.604586553868	0
335	163573	47.612130494874	0
335	164168	47.617130494874	0
335	164662	47.622130494874	0
335	165142	47.627130494874	0
335	165809	47.632130494874	0
335	166206	47.637130494874	0
335	166207	47.642130494874	0
335	166612	47.651805093003	0
335	166619	47.656805093003	0
335	167010	47.66373432128	0
335	167101	47.66873432128	0
335	167401	47.674674576018	0
335	167791	47.679674576018	0
335	168168	47.684674576018	0
335	168169	47.689674576018	0
335	168552	47.702942863466	0
335	168553	47.707942863466	0
335	169238	47.715702878194	0
335	169422	47.720702878194	0
335	169817	47.726157125819	0
335	170120	47.731157125819	0
335	170121	47.736157125819	0
335	170303	48.505	1
335	170855	48.51	20
335	171968	48.515	0
335	173239	48.52	0
335	173808	48.525	0
335	174007	48.53	0
335	174525	48.535	0
335	175485	48.54	0
335	176791	48.548143001696	0
335	177584	48.553143001696	0
335	178291	48.559022209158	0
335	178787	48.564022209158	0
335	179503	48.569022209158	0
335	180350	48.574022209158	0
335	181130	48.579022209158	0
335	181702	48.584022209158	0
335	182100	48.589022209158	0
335	182890	48.594022209158	0
335	183371	48.599022209158	0
335	183788	48.604022209158	0
335	184774	48.611856875981	0
335	185272	48.616856875981	0
335	185980	48.621856875981	0
335	186572	48.626856875981	0
335	187150	48.631856875981	0
335	187814	48.636856875981	0
335	188123	48.641856875981	0
335	188615	48.646856875981	0
335	189423	48.651856875981	0
335	190106	48.656856875981	0
335	190670	48.661856875981	0
335	191467	48.669288615464	0
335	191840	48.674288615464	0
335	192705	48.683492878109	0
335	193000	48.688492878109	0
335	193397	48.693492878109	0
335	193787	48.698492878109	0
335	194171	48.706419351414	0
335	194567	48.711419351414	0
335	194568	48.716419351414	0
335	195048	48.729313605276	0
335	195618	48.734313605276	0
335	195724	48.739313605276	0
335	196118	48.74799142764	0
335	196119	48.75299142764	0
335	196502	48.830415443428	0
335	196503	48.835415443428	0
335	196702	49.505	1
335	196709	49.51	0
335	198541	49.518922793315	32
335	199917	49.523922793315	0
335	201031	49.528922793315	0
335	202058	49.533922793315	0
335	202473	49.538922793315	0
335	203581	49.544165070885	0
335	204423	49.549165070885	0
335	205268	49.554165070885	0
335	206279	49.562046944523	0
335	206984	49.567046944523	0
335	211074	49.591921831317	0
335	211958	49.596921831317	0
335	212456	49.601921831317	0
335	213332	49.606921831317	0
335	214044	49.611921831317	0
335	218300	49.637694739857	0
335	218910	49.642694739857	0
335	220151	49.647694739857	0
335	221343	49.652694739857	0
335	222319	49.657694739857	0
335	223303	49.662694739857	0
335	224142	49.667694739857	0
335	225118	49.672694739857	0
335	226121	49.677694739857	0
335	227314	49.682694739857	0
335	228360	49.687694739857	0
335	229559	49.692694739857	0
335	230469	49.697694739857	0
335	231068	49.702694739857	0
335	231980	49.707862762176	0
335	233106	49.712862762176	0
335	233916	49.717862762176	0
335	235149	49.726432680457	0
335	236121	49.731432680457	0
335	237177	49.736432680457	0
335	237697	49.741432680457	0
335	238403	49.746432680457	0
335	238892	49.752763870702	0
335	239477	49.757763870702	0
335	240186	49.7651798938	0
335	240934	49.7701798938	0
335	241613	49.7751798938	0
335	242403	49.780476976364	0
335	242950	49.785476976364	0
335	243772	49.790476976364	0
335	244774	49.795476976364	0
335	245825	49.800476976364	0
335	246434	49.805476976364	0
335	247259	49.811540138555	0
335	248040	49.816540138555	0
335	248666	49.821540138555	0
335	249260	49.826540138555	0
335	249576	49.831540138555	0
335	250479	49.843054780744	0
335	251466	49.848054780744	0
335	251792	49.853054780744	0
335	252607	49.861117768996	0
335	252608	49.866117768996	0
335	253014	49.876954860313	0
335	253015	49.881954860313	0
335	254250	49.924586913376	0
335	254635	49.929586913376	0
335	255044	49.945894972136	0
335	255045	49.950894972136	0
335	255234	50.505	1
335	255244	50.51	0
335	257381	50.518043345469	42
335	259187	50.523043345469	0
335	260603	50.528043345469	0
335	261828	50.533043345469	0
335	262653	50.538043345469	0
335	263448	50.543043345469	0
335	265074	50.548481017405	0
335	266192	50.553481017405	0
335	267572	50.558481017405	0
335	268553	50.563481017405	0
335	269358	50.568481017405	0
335	270969	50.576693040956	0
335	272258	50.581693040956	0
335	274141	50.586693040956	0
335	275429	50.591693040956	0
335	276701	50.596693040956	0
335	277606	50.601693040956	0
335	278917	50.606693040956	0
335	280047	50.611693040956	0
335	281101	50.616693040956	0
335	282227	50.622734958686	0
335	283251	50.627734958686	0
335	284883	50.634310050089	0
335	286218	50.639310050089	0
335	287533	50.644310050089	0
335	288625	50.649310050089	0
335	289378	50.655638985747	0
335	290448	50.660638985747	0
335	295003	50.683567519153	0
335	296097	50.688567519153	0
335	296921	50.693567519153	0
335	297819	50.698567519153	0
335	300882	50.711544721081	0
335	301864	50.716544721081	0
335	303217	50.721544721081	0
335	303990	50.726544721081	0
335	305116	50.732166977277	0
335	305853	50.737166977277	0
335	307475	50.744200735132	0
335	308380	50.749200735132	0
335	309574	50.754493532159	0
335	310369	50.759493532159	0
335	310907	50.764493532159	0
335	311616	50.769493532159	0
335	312865	50.774493532159	0
335	313460	50.779493532159	0
335	314251	50.784493532159	0
335	314952	50.789493532159	0
335	316092	50.796188758263	0
335	317198	50.801188758263	0
335	318594	50.806188758263	0
335	319212	50.811188758263	0
335	319621	50.816188758263	0
335	320307	50.821188758263	0
335	321431	50.826188758263	0
335	322381	50.831188758263	0
335	324537	50.850063080379	0
335	325551	50.855063080379	0
335	326600	50.860063080379	0
335	328000	50.871950040443	0
335	328698	50.876950040443	0
335	330491	50.89229202598	0
335	331087	50.89729202598	0
335	331728	50.90229202598	0
335	332452	50.90729202598	0
335	333106	50.91229202598	0
335	334171	50.91729202598	0
335	334909	50.92229202598	0
335	335384	50.92729202598	0
335	336084	50.93229202598	0
335	336741	50.93729202598	0
335	337153	50.94229202598	0
335	337739	50.94729202598	0
335	338151	50.95229202598	0
335	338153	50.95729202598	0
335	338154	50.96229202598	0
335	339336	50.975767016841	0
335	339337	50.980767016841	0
335	339765	50.992051559743	0
335	339766	50.997051559743	0
335	340349	51.016440683241	0
335	340350	51.021440683241	0
335	340383	51.505	1
335	340390	51.51	0
335	341823	51.520128890436	28
335	342792	51.525128890436	0
335	343897	51.530128890436	0
335	344607	51.535128890436	0
335	345675	51.540128890436	0
335	346688	51.545128890436	0
335	347418	51.550128890436	0
335	348337	51.555128890436	0
335	349366	51.560128890436	0
335	350170	51.565128890436	0
335	351083	51.570128890436	0
335	351797	51.575128890436	0
335	353090	51.582624457118	0
335	353697	51.587624457118	0
335	355265	51.599186625188	0
335	356021	51.604186625188	0
335	356903	51.609186625188	0
335	357653	51.614186625188	0
335	358556	51.619186625188	0
335	359564	51.624207335434	0
335	360264	51.629207335434	0
335	360866	51.637683153526	0
335	361604	51.642683153526	0
335	362414	51.647683153526	0
335	363671	51.652683153526	0
335	364249	51.657683153526	0
335	365068	51.662683153526	0
335	365167	51.667683153526	0
335	365908	51.674104255879	0
335	366575	51.679104255879	0
335	367520	51.684948324078	0
335	368020	51.689948324078	0
335	368740	51.695405496165	0
335	369428	51.700405496165	0
335	370235	51.705440455532	0
335	370651	51.710440455532	0
335	371074	51.715440455532	0
335	371994	51.720440455532	0
335	372485	51.725440455532	0
335	373129	51.731278811336	0
335	373810	51.736278811336	0
335	374751	51.745215870093	0
335	375370	51.750215870093	0
335	375878	51.755215870093	0
335	376498	51.760215870093	0
335	376921	51.765215870093	0
335	377432	51.770215870093	0
335	378030	51.775215870093	0
335	378364	51.781804346048	0
335	378835	51.786804346048	0
335	379157	51.79340789786	0
335	379844	51.79840789786	0
335	380546	51.808600529187	0
335	380841	51.813600529187	0
335	381610	51.820259415541	0
335	382373	51.825259415541	0
335	382793	51.83901877062	0
335	383217	51.84401877062	0
335	383314	51.84901877062	0
335	384056	51.854123437258	0
335	384060	51.859123437258	0
335	384245	52.505	1
335	384501	52.51	10
335	385136	52.515	0
335	385922	52.52	0
335	386825	52.525	0
335	387510	52.53	0
335	388221	52.535	0
335	389127	52.54	0
335	390017	52.545	0
335	390602	52.55	0
335	390886	52.555	0
335	391221	52.561105914917	0
335	391913	52.566105914917	0
335	393097	52.571105914917	0
335	393908	52.576105914917	0
335	394322	52.581105914917	0
335	395496	52.591135447997	0
335	396190	52.596135447997	0
335	396687	52.601135447997	0
335	397064	52.606525203981	0
335	397578	52.611525203981	0
335	397788	52.616525203981	0
335	398197	52.626533474957	0
335	398288	52.631533474957	0
335	398628	52.636555902075	0
335	399041	52.641555902075	0
335	399045	52.646555902075	0
335	399836	52.65504825139	0
335	399840	52.66004825139	0
335	400226	52.736192277677	0
335	400227	52.741192277677	0
335	400413	53.505	1
335	400510	53.51	0
335	402167	53.515345147604	39
335	404080	53.520345147604	0
335	405634	53.525345147604	0
335	406852	53.530345147604	0
335	407883	53.535345147604	0
335	408904	53.540345147604	0
335	410763	53.545345147604	0
335	411955	53.550345147604	0
335	413068	53.555345147604	0
335	414448	53.563252578264	0
335	415412	53.568252578264	0
335	416573	53.573252578264	0
335	417907	53.578252578264	0
335	418807	53.583252578264	0
335	420358	53.58985759636	0
335	421281	53.59485759636	0
335	424974	53.614248352388	0
335	425801	53.619248352388	0
335	426627	53.624248352388	0
335	429294	53.637720376205	0
335	430156	53.642720376205	0
335	431175	53.647720376205	0
335	433273	53.658727558191	0
335	434149	53.663727558191	0
335	434775	53.668727558191	0
335	436899	53.675852397526	0
335	437742	53.680852397526	0
335	438428	53.685852397526	0
335	440038	53.694170424195	0
335	441252	53.699170424195	0
335	442048	53.704170424195	0
335	443261	53.709170424195	0
335	444087	53.714170424195	0
335	444818	53.719170424195	0
335	446601	53.724822803213	0
335	447499	53.729822803213	0
335	448345	53.734822803213	0
335	449059	53.740831875023	0
335	450209	53.745831875023	0
335	451023	53.750831875023	0
335	452031	53.756167100622	0
335	453134	53.761167100622	0
335	454052	53.766167100622	0
335	455400	53.775606273855	0
335	456119	53.780606273855	0
335	457059	53.785606273855	0
335	458025	53.790606273855	0
335	459051	53.795606273855	0
335	460766	53.806777076537	0
335	461510	53.811777076537	0
335	462404	53.816777076537	0
335	463160	53.821777076537	0
335	464094	53.826777076537	0
335	464410	53.831777076537	0
335	465221	53.836777076537	0
335	466558	53.845042245321	0
335	466991	53.850042245321	0
335	468221	53.861620569551	0
335	468853	53.866620569551	0
335	469601	53.872058005448	0
335	469918	53.877058005448	0
335	470781	53.883562309976	0
335	471388	53.888562309976	0
335	471695	53.893562309976	0
335	472628	53.899870087857	0
335	473019	53.904870087857	0
335	473850	53.914279656054	0
335	474356	53.919279656054	0
335	475077	53.924279656054	0
335	476110	53.947325618219	0
335	476545	53.952325618219	0
335	476546	53.957325618219	0
335	477053	53.97818600767	0
335	477372	53.98318600767	0
335	477373	53.98818600767	0
335	477572	54.505	1
335	478074	54.51	20
335	479498	54.515	0
335	480566	54.52	0
335	481721	54.525	0
335	482455	54.53	0
335	483519	54.535	0
335	484452	54.54	0
335	485211	54.545	0
335	485995	54.55	0
335	486786	54.555	0
335	488304	54.56	0
335	489393	54.565	0
335	490586	54.57	0
335	491087	54.575	0
335	492755	54.584304648399	0
335	494369	54.589304648399	0
335	495197	54.594304648399	0
335	495955	54.599304648399	0
335	496475	54.604304648399	0
335	497213	54.609304648399	0
335	498106	54.614304648399	0
335	499544	54.623229708911	0
335	500135	54.628229708911	0
335	501240	54.633229708911	0
335	501565	54.638229708911	0
335	502396	54.643793877458	0
335	503153	54.648793877458	0
335	504874	54.66383368483	0
335	505695	54.66883368483	0
335	506313	54.67383368483	0
335	506811	54.67883368483	0
335	506903	54.68383368483	0
335	507632	54.689067412051	0
335	508525	54.694067412051	0
335	508944	54.699067412051	0
335	509556	54.704067412051	0
335	509683	54.709067412051	0
335	510498	54.719500265382	0
335	510502	54.724500265382	0
335	511369	54.732312904355	0
335	511881	54.737312904355	0
335	512611	54.742312904355	0
335	512612	54.747312904355	0
335	515889	70.00501	0
335	516276	70.01001	0
335	516675	70.01501	0
335	517166	70.02001	0
335	517472	70.02501	0
335	517473	70.03001	0
335	518058	71.00501	0
335	518474	71.01001	0
335	518894	71.01501	0
335	519381	71.02001	0
335	519779	71.02501	0
335	520089	71.03001	0
335	520512	71.03501	0
335	521188	71.04001	0
335	521496	71.04501	0
335	521497	71.05001	0
335	522737	71.068684162108	0
335	523151	71.073684162108	0
335	523152	71.078684162108	0
335	523734	72.00501	0
335	524146	72.01001	0
335	524543	72.01501	0
335	524971	72.02001	0
335	525799	72.02501	0
335	526207	72.03001	0
335	526629	72.03501	0
335	526633	72.04001	0
335	527144	72.046620064808	0
335	527496	72.051620064808	0
335	527497	72.056620064808	0
335	528099	73.00501	0
335	528402	73.01001	0
335	528519	73.01501	0
335	529216	73.022606040083	0
335	529801	73.027606040083	0
335	530135	73.032606040083	0
335	530724	73.037606040083	0
335	530725	73.042606040083	0
335	531574	73.05540407831	0
335	531973	73.06040407831	0
335	532393	73.06540407831	0
335	532811	73.07040407831	0
335	533211	73.07540407831	0
335	533212	73.08040407831	0
335	632601	670.00501	0
335	632880	670.01001	0
335	633570	670.015916021779	0
335	633970	670.020916021779	0
335	633971	670.025916021779	0
335	634377	670.035252035864	0
335	634378	670.040252035864	0
335	634963	671.00501	0
335	635382	671.01001	0
335	635886	671.01501	0
335	636493	671.02001	0
335	636794	671.02501	0
335	637493	671.030444064951	0
335	638679	671.035444064951	0
335	639103	671.040444064951	0
335	639430	671.045444064951	0
335	639431	671.050444064951	0
335	640013	672.00501	0
335	640425	672.01001	0
335	640828	672.01501	0
335	641340	672.02001	0
335	642079	672.02501	0
335	642513	672.03001	0
335	643126	672.03501	0
335	643127	672.04001	0
335	643946	672.06230008004	0
335	643950	672.06730008004	0
335	644433	673.00501	0
335	644971	673.01001	0
335	645388	673.01501	0
335	645794	673.02001	0
335	646463	673.02501	0
335	646876	673.03001	0
335	647177	673.03501	0
335	647178	673.04001	0
335	647767	673.04964407831	0
335	648196	673.05464407831	0
335	648197	673.05964407831	0
335	648895	673.07961210771	0
335	649440	673.08461210771	0
335	649837	673.08961210771	0
335	649838	673.09461210771	0
335	749418	1270.00501	0
335	749892	1270.01001	0
335	750559	1270.01501	0
335	750560	1270.02001	0
335	751513	1270.067252035864	0
335	751514	1270.072252035864	0
335	752316	1270.097468054752	0