file 255808 1353539951                                          
version 2
run AODVScenario_1f-55-20121121-14:57:47-5384
attr configname AODVScenario_1f
attr datetime 20121121-14:57:47
attr experiment AODVScenario_1f
attr inifile AODV.ini
attr iterationvars $numNodes=105
attr iterationvars2 "$numNodes=105, $repetition=0"
attr measurement $numNodes=105
attr network csma802154net
attr numNodes 105
attr processid 5384
attr repetition 0
attr replication #0
attr resultdir results
attr runnumber 55
attr seedset 55
vector 431  csma802154net.dataCentricNetworkMan  RREQPacketFrequency  ETV
431	7298 38558 1114 2803668 1.005 7273.084180149102 1356 0 133 4695 312463
vector 432  csma802154net.dataCentricNetworkMan  RERRPacketFrequency  ETV
432	45856 38460 1114 2803668 1.005 7273.084180149102 1356 0 0 0 0
vector 433  csma802154net.dataCentricNetworkMan  DiscoveryPacketFrequency  ETV
433	84316 38460 1114 2803668 1.005 7273.084180149102 1356 0 0 0 0
vector 434  csma802154net.dataCentricNetworkMan  RegisterPacketFrequency  ETV
434	122776 38460 1114 2803668 1.005 7273.084180149102 1356 0 1 12 12
vector 435  csma802154net.dataCentricNetworkMan  RReplyPacketFrequency  ETV
435	161236 38473 1114 2803668 1.005 7273.084180149102 1356 0 103 1573 64305
vector 436  csma802154net.dataCentricNetworkMan  AODVDataPacketFrequency  ETV
436	199709 38477 1114 2803668 1.005 7273.084180149102 1356 0 102 1327 57445
vector 443  csma802154net.dataCentricNetworkMan  pendingRegistrationVector  ETV
443	249969 496 46165 1008839 43.5 54.904962990664 21 0 4 49 155
vector 442  csma802154net.dataCentricNetworkMan  pendingRREQVector  ETV
442	248588 1381 46170 1012751 43.50001 54.956083582029 49 0 1 15 15
vector 437  csma802154net.dataCentricNetworkMan  AODVDataLineBreakVector  ETV
437	238186 30 193635 193635 45.022141069639 45.022141069639 1 1 1 1 1
vector 440  csma802154net.dataCentricNetworkMan  PendingDataPacketsVector  ETV
440	238216 10372 1018818 2803406 70 7273.075692201986 338 0 3 351 637
vector 450  csma802154net.fixhost[6].udpApp  "End-to-end delay"  ETV
450	251655 591 1020244 2786682 70.01151602412 7270.01503602412 13 0.011196024121 0.01503602412 0.168268313569 0.002195141765483
vector 428  csma802154net.dataCentricNetworkMan  dataPacketE2EDelay  ETV
428	1955 5343 1020244 2803406 70.01151602412 7273.075692201986 117 0.011196024121 0.10414017424 4.211870711281 0.20923684147485
vector 456  csma802154net.fixhost[12].udpApp  "End-to-end delay"  ETV
456	253436 595 1021236 2788219 70.018796073816 7270.030244073816 13 0.018796073816 0.030244073816 0.294692959615 0.0067880296343505
vector 454  csma802154net.fixhost[10].udpApp  "End-to-end delay"  ETV
454	252841 595 1021760 2787698 70.022316057604 7270.024876057604 13 0.019756057605 0.052572057605 0.34922874886 0.010212214138367
vector 461  csma802154net.fixhost[17].udpApp  "End-to-end delay"  ETV
461	254622 595 1024094 2790537 71.016596056384 7271.017236056384 13 0.016596056383 0.018836056384 0.224068732987 0.003868205315573
vector 449  csma802154net.fixhost[5].udpApp  "End-to-end delay"  ETV
449	251060 595 1027929 2793853 72.027364057046 7272.024484057046 13 0.020076057046 0.052252057042 0.345284741592 0.0099571112176695
vector 452  csma802154net.fixhost[8].udpApp  "End-to-end delay"  ETV
452	252246 595 1028457 2794904 72.030556104485 7272.030804104485 13 0.029276104485 0.058252104483 0.5053093583 0.020895156169898
vector 448  csma802154net.fixhost[4].udpApp  "End-to-end delay"  ETV
448	250465 595 1033936 2802334 73.039436134398 7273.069260162141 13 0.031796106649 0.088388162142 0.57212566392 0.028389018496695
vector 458  csma802154net.fixhost[14].udpApp  "End-to-end delay"  ETV
458	254031 591 1035811 2801245 73.070364159999 7273.045436187746 13 0.041316159998 0.076372159999 0.741014024737 0.044484450440113
vector 462  csma802154net.fixhost[18].udpApp  "End-to-end delay"  ETV
462	255217 591 1037876 2803406 73.10414017424 7273.075692201986 13 0.048356169655 0.10414017424 1.011878167701 0.082447514296697
