version 2
run AODVScenario_1f-41-20121121-14:53:02-6036
attr configname AODVScenario_1f
attr datetime 20121121-14:53:02
attr experiment AODVScenario_1f
attr inifile AODV.ini
attr iterationvars $numNodes=91
attr iterationvars2 "$numNodes=91, $repetition=0"
attr measurement $numNodes=91
attr network csma802154net
attr numNodes 91
attr processid 6036
attr repetition 0
attr replication #0
attr resultdir results
attr runnumber 41
attr seedset 41

vector 375  csma802154net.dataCentricNetworkMan  RREQPacketFrequency  ETV
vector 376  csma802154net.dataCentricNetworkMan  RERRPacketFrequency  ETV
vector 377  csma802154net.dataCentricNetworkMan  DiscoveryPacketFrequency  ETV
vector 378  csma802154net.dataCentricNetworkMan  RegisterPacketFrequency  ETV
vector 379  csma802154net.dataCentricNetworkMan  RReplyPacketFrequency  ETV
vector 380  csma802154net.dataCentricNetworkMan  AODVDataPacketFrequency  ETV
vector 387  csma802154net.dataCentricNetworkMan  pendingRegistrationVector  ETV
vector 386  csma802154net.dataCentricNetworkMan  pendingRREQVector  ETV
vector 384  csma802154net.dataCentricNetworkMan  PendingDataPacketsVector  ETV
vector 400  csma802154net.fixhost[12].udpApp  "End-to-end delay"  ETV
vector 372  csma802154net.dataCentricNetworkMan  dataPacketE2EDelay  ETV
vector 393  csma802154net.fixhost[5].udpApp  "End-to-end delay"  ETV
vector 407  csma802154net.fixhost[19].udpApp  "End-to-end delay"  ETV
vector 415  csma802154net.fixhost[27].udpApp  "End-to-end delay"  ETV
vector 411  csma802154net.fixhost[23].udpApp  "End-to-end delay"  ETV
vector 394  csma802154net.fixhost[6].udpApp  "End-to-end delay"  ETV
vector 399  csma802154net.fixhost[11].udpApp  "End-to-end delay"  ETV
vector 401  csma802154net.fixhost[13].udpApp  "End-to-end delay"  ETV
vector 391  csma802154net.fixhost[3].udpApp  "End-to-end delay"  ETV
vector 395  csma802154net.fixhost[7].udpApp  "End-to-end delay"  ETV
vector 396  csma802154net.fixhost[8].udpApp  "End-to-end delay"  ETV
372	748282	70.022076039814	0.022076039814
372	748739	70.027444030049	0.027444030049
372	752103	71.027436060242	0.027436060242
372	752562	71.031124111592	0.031124111592
372	753014	71.03749208308	0.03749208308
372	755572	72.021356066279	0.021356066279
372	756491	72.026684096398	0.026684096398
372	757907	72.040612135797	0.040612135797
372	761562	73.039516102322	0.039516102322
372	762686	73.060924098219	0.060924098219
372	764163	73.094692144329	0.094692144329
372	876919	670.011196030049	0.011196030049
372	877373	670.015924039815	0.015924039815
372	879823	671.026476060243	0.026476060243
372	880736	671.03660408308	0.03660408308
372	881632	671.043604111591	0.043604111591
372	884179	672.021676066279	0.021676066279
372	886044	672.039092096398	0.039092096398
372	886517	672.041644135797	0.041644135797
372	890646	673.028564102322	0.028564102322
372	891117	673.034612098219	0.034612098219
372	892591	673.056684144329	0.056684144329
372	1005328	1270.012796039815	0.012796039815
372	1005784	1270.019124030049	0.019124030049
372	1008900	1271.024836083081	0.024836083081
372	1009799	1271.033044111593	0.033044111593
372	1010246	1271.051612060242	0.051612060242
372	1012806	1272.022956066279	0.022956066279
372	1014192	1272.035004096397	0.035004096397
372	1015146	1272.042212135796	0.042212135796
372	1018801	1273.031196102321	0.031196102321
372	1019735	1273.048444098218	0.048444098218
372	1021916	1273.087580144329	0.087580144329
372	1134763	1870.015676030049	0.015676030049
372	1135217	1870.020724039815	0.020724039815
372	1137667	1871.023596060242	0.023596060242
372	1138580	1871.03372408308	0.03372408308
372	1139476	1871.040724111592	0.040724111592
372	1142475	1872.024164066279	0.024164066279
372	1143393	1872.049404096398	0.049404096398
372	1145281	1872.067492135797	0.067492135797
372	1149633	1873.031764102321	0.031764102321
372	1150324	1873.056372098218	0.056372098218
372	1151337	1873.06397213981	0.06397213981
372	1264530	2470.012796039815	0.012796039815
372	1264982	2470.014964030049	0.014964030049
372	1267907	2471.02131608308	0.02131608308
372	1268359	2471.024164060243	0.024164060243
372	1269260	2471.032404111591	0.032404111591
372	1272263	2472.022564066279	0.022564066279
372	1274356	2472.054092103123	0.054092103123
372	1275264	2472.082468096398	0.082468096398
372	1279212	2473.031516102322	0.031516102322
372	1280610	2473.057012098219	0.057012098219
372	1282074	2473.065572139811	0.065572139811
372	1395018	3070.013756030049	0.013756030049
372	1395477	3070.037364039815	0.037364039815
372	1398377	3071.024236060243	0.024236060243
372	1398843	3071.026756083081	0.026756083081
372	1399738	3071.034572111592	0.034572111592
372	1402284	3072.026796066279	0.026796066279
372	1403203	3072.031876096398	0.031876096398
372	1404613	3072.042676135797	0.042676135797
372	1408268	3073.032476102322	0.032476102322
372	1409663	3073.057684130849	0.057684130849
372	1410676	3073.066884172441	0.066884172441
372	1523523	3670.013116030048	0.013116030048
372	1523977	3670.017524039814	0.017524039814
372	1527073	3671.027716083081	0.027716083081
372	1527977	3671.051292060242	0.051292060242
372	1528874	3671.057364111593	0.057364111593
372	1531421	3672.022636066279	0.022636066279
372	1532345	3672.031484096398	0.031484096398
372	1533755	3672.042924135797	0.042924135797
372	1536749	3673.026756098217	0.026756098217
372	1538388	3673.03880410232	0.03880410232
372	1540332	3673.066852144327	0.066852144327
372	1653068	4270.015356039813	0.015356039813
372	1653725	4270.041204030047	0.041204030047
372	1656644	4271.025196060242	0.025196060242
372	1657112	4271.02956408308	0.02956408308
372	1658008	4271.04481211159	0.04481211159
372	1660554	4272.019116066278	0.019116066278
372	1661478	4272.029884096398	0.029884096398
372	1663575	4272.068700135795	0.068700135795
372	1668150	4273.034004102321	0.034004102321
372	1668834	4273.058964130847	0.058964130847
372	1669847	4273.067844172438	0.067844172438
372	1783037	4870.011836039814	0.011836039814
372	1783493	4870.015924030048	0.015924030048
372	1786411	4871.024804060243	0.024804060243
372	1786880	4871.028356083081	0.028356083081
372	1787776	4871.037132111593	0.037132111593
372	1790323	4872.023276066279	0.023276066279
372	1791248	4872.034044096398	0.034044096398
372	1792664	4872.045732135796	0.045732135796
372	1796328	4873.031516102322	0.031516102322
372	1798194	4873.065612130849	0.065612130849
372	1799207	4873.074812172441	0.074812172441
372	1912054	5470.011196030049	0.011196030049
372	1912508	5470.015924039815	0.015924039815
372	1915408	5471.026796060243	0.026796060243
372	1916058	5471.02899608308	0.02899608308
372	1916959	5471.058964111592	0.058964111592
372	1919509	5472.020716066279	0.020716066279
372	1920427	5472.027324096398	0.027324096398
372	1921839	5472.038124135797	0.038124135797
372	1925489	5473.032156130849	0.032156130849
372	1926505	5473.040076172441	0.040076172441
372	1927913	5473.067140102322	0.067140102322
372	2040645	6070.013436039815	0.013436039815
372	2041302	6070.038644030049	0.038644030049
372	2043769	6071.021036060243	0.021036060243
372	2044685	6071.027964083081	0.027964083081
372	2045581	6071.036172111593	0.036172111593
372	2048577	6072.027076096398	0.027076096398
372	2049529	6072.042324125603	0.042324125603
372	2050477	6072.055364162446	0.055364162446
372	2054136	6073.031836102322	0.031836102322
372	2056211	6073.079980098219	0.079980098219
372	2057684	6073.094868144328	0.094868144328
372	2170440	6670.013436030048	0.013436030048
372	2170894	6670.017524039814	0.017524039814
372	2173344	6671.025196060243	0.025196060243
372	2174257	6671.032764083081	0.032764083081
372	2175152	6671.040724111593	0.040724111593
372	2178155	6672.024484066277	0.024484066277
372	2178832	6672.029244096397	0.029244096397
372	2180249	6672.057964135796	0.057964135796
372	2184198	6673.028924098219	0.028924098219
372	2185863	6673.040292144329	0.040292144329
372	2186324	6673.054804102322	0.054804102322
372	2299148	7270.011836039815	0.011836039815
372	2299604	7270.017524030049	0.017524030049
372	2302071	7271.022316060243	0.022316060243
372	2302987	7271.028924083081	0.028924083081
372	2303884	7271.040652111593	0.040652111593
372	2306431	7272.021356066279	0.021356066279
372	2307351	7272.028604096397	0.028604096397
372	2308767	7272.041004135795	0.041004135795
372	2312430	7273.030876102322	0.030876102322
372	2313833	7273.057652098219	0.057652098219
372	2315306	7273.073180144328	0.073180144328
375	721	1.005	1
375	731	1.01	0
375	1439	1.017631146719	68
375	2174	1.022631146719	47
375	3422	1.027631146719	89
375	4639	1.032631146719	14
375	6359	1.037631146719	101
375	8711	1.042631146719	97
375	10534	1.047631146719	72
375	12359	1.052631146719	47
375	13510	1.057631146719	66
375	15206	1.062631146719	88
375	16012	1.067631146719	64
375	17570	1.072631146719	99
375	18480	1.077631146719	47
375	19006	1.082631146719	48
375	19757	1.087631146719	55
375	20347	1.092631146719	40
375	21011	1.097631146719	57
375	21437	1.102631146719	47
375	22144	1.107631146719	44
375	22658	1.112631146719	49
375	22659	1.117631146719	0
375	23279	1.130353308206	49
375	23745	1.135353308206	36
375	24016	1.140353308206	37
375	24327	1.145353308206	25
375	24331	1.150353308206	0
375	24992	1.157920415198	58
375	25476	1.162920415198	46
375	26258	1.167920415198	73
375	26843	1.172920415198	59
375	27531	1.177920415198	65
375	27837	1.182920415198	22
375	28240	1.187920415198	24
375	28531	1.192920415198	41
375	28532	1.197920415198	0
375	36450	43.505	1
375	36950	43.51	38
375	38588	43.515	0
375	39714	43.52	0
375	41084	43.525	0
375	41835	43.53	0
375	42781	43.535	0
375	43663	43.54	0
375	49931	43.57372743719	0
375	50722	43.57872743719	0
375	53042	43.588510990113	0
375	53671	43.593510990113	0
375	54787	43.601649032837	0
375	56178	43.606649032837	0
375	57632	43.611649032837	0
375	58475	43.61712522703	0
375	59119	43.62212522703	0
375	60151	43.627301656733	0
375	61115	43.632301656733	0
375	62642	43.637301656733	0
375	63372	43.642301656733	0
375	65061	43.652567981689	0
375	66048	43.657567981689	0
375	66842	43.662567981689	0
375	67747	43.667813680989	0
375	68286	43.672813680989	0
375	69241	43.677813680989	0
375	70219	43.682813680989	0
375	71449	43.690766574748	0
375	72707	43.695766574748	0
375	74285	43.706602153085	0
375	75030	43.711602153085	0
375	75915	43.716602153085	0
375	76586	43.721602153085	0
375	77668	43.726941290036	0
375	78750	43.731941290036	0
375	79855	43.736941290036	0
375	80833	43.741941290036	0
375	81769	43.746941290036	0
375	83039	43.753128849289	0
375	84487	43.758128849289	0
375	85134	43.763128849289	0
375	86577	43.77322482548	0
375	87212	43.77822482548	0
375	88269	43.78322482548	0
375	89414	43.78822482548	0
375	90611	43.794980859547	0
375	91344	43.799980859547	0
375	94145	43.815912022478	0
375	95046	43.820912022478	0
375	95694	43.825912022478	0
375	97023	43.834107376766	0
375	98016	43.839107376766	0
375	98567	43.844107376766	0
375	100233	43.854477675706	0
375	100974	43.859477675706	0
375	102113	43.864477675706	0
375	102570	43.869477675706	0
375	103593	43.87888029211	0
375	104251	43.88388029211	0
375	104927	43.88888029211	0
375	105576	43.89388029211	0
375	106367	43.899278836047	0
375	106792	43.904278836047	0
375	107767	43.913630602687	0
375	108213	43.918630602687	0
375	108987	43.923630602687	0
375	109630	43.928630602687	0
375	109960	43.933630602687	0
375	110726	43.944817787753	0
375	111130	43.949817787753	0
375	111696	43.964021336826	0
375	112698	43.969021336826	0
375	112699	43.974021336826	0
375	113153	43.996605364	0
375	113337	44.001605364	0
375	113344	44.505	1
375	113351	44.51	0
375	115392	44.519927310138	46
375	117774	44.524927310138	0
375	119126	44.531429660048	0
375	120616	44.536429660048	0
375	121613	44.541429660048	0
375	122977	44.546429660048	0
375	125705	44.560015261913	0
375	126378	44.565015261913	0
375	128805	44.577500582777	0
375	129707	44.582500582777	0
375	132153	44.594239713089	0
375	133116	44.599239713089	0
375	138271	44.624848020599	0
375	139353	44.629848020599	0
375	140790	44.636276482774	0
375	141586	44.641276482774	0
375	143057	44.647455237965	0
375	143833	44.652455237965	0
375	148619	44.675554060665	0
375	149724	44.680554060665	0
375	150825	44.685554060665	0
375	151915	44.690554060665	0
375	153486	44.699547485856	0
375	154546	44.704547485856	0
375	155504	44.709547485856	0
375	156593	44.714547485856	0
375	157451	44.719547485856	0
375	158763	44.725848840618	0
375	159623	44.730848840618	0
375	160665	44.736081452852	0
375	161522	44.741081452852	0
375	162437	44.746535293313	0
375	163155	44.751535293313	0
375	164007	44.756535293313	0
375	164870	44.761535293313	0
375	165667	44.766535293313	0
375	166458	44.771535293313	0
375	167826	44.776535293313	0
375	168846	44.781535293313	0
375	170235	44.786535293313	0
375	171107	44.791535293313	0
375	172102	44.79711456767	0
375	172560	44.80211456767	0
375	173244	44.80711456767	0
375	175995	44.821640066894	0
375	176881	44.826640066894	0
375	177551	44.831640066894	0
375	178479	44.837569462906	0
375	179321	44.842569462906	0
375	180665	44.850639308391	0
375	181292	44.855639308391	0
375	182518	44.865389722263	0
375	183473	44.870389722263	0
375	184018	44.875389722263	0
375	184246	44.880389722263	0
375	185066	44.885389722263	0
375	185807	44.890389722263	0
375	186676	44.895389722263	0
375	187344	44.900389722263	0
375	188163	44.905929492891	0
375	188655	44.910929492891	0
375	189631	44.915929492891	0
375	190399	44.920929492891	0
375	190942	44.925929492891	0
375	191581	44.932753310794	0
375	192381	44.937753310794	0
375	193146	44.942753310794	0
375	193802	44.94935042092	0
375	194608	44.95435042092	0
375	195284	44.95935042092	0
375	196098	44.96435042092	0
375	196744	44.96935042092	0
375	196878	44.97435042092	0
375	197344	44.990293473482	0
375	197797	44.995293473482	0
375	199055	45.002525827454	0
375	199056	45.007525827454	0
375	199510	45.056168679085	0
375	199514	45.061168679085	0
375	200065	45.06863633904	0
375	200413	45.07363633904	0
375	200414	45.07863633904	0
375	200427	45.505	1
375	200806	45.51	26
375	201958	45.515	0
375	204159	45.52	0
375	204725	45.525	0
375	205785	45.53	0
375	206770	45.535	0
375	207360	45.54	0
375	208299	45.545	0
375	209347	45.55	0
375	210181	45.555	0
375	211083	45.56	0
375	212053	45.565	0
375	213243	45.57	0
375	213833	45.575	0
375	214499	45.58	0
375	215231	45.585	0
375	216008	45.590718549967	0
375	216565	45.595718549967	0
375	217351	45.600718549967	0
375	218201	45.605718549967	0
375	219240	45.610718549967	0
375	220001	45.615718549967	0
375	220837	45.620718549967	0
375	221729	45.625718549967	0
375	222534	45.630718549967	0
375	223108	45.635718549967	0
375	224041	45.640718549967	0
375	224962	45.645718549967	0
375	226023	45.650718549967	0
375	226421	45.655718549967	0
375	227325	45.660896133239	0
375	228071	45.665896133239	0
375	228073	45.670896133239	0
375	229193	45.68016027242	0
375	229749	45.68516027242	0
375	230653	45.69016027242	0
375	231243	45.69516027242	0
375	231748	45.70016027242	0
375	232537	45.70584593328	0
375	232990	45.71084593328	0
375	232991	45.71584593328	0
375	233674	45.727672159159	0
375	234403	45.732672159159	0
375	234848	45.737672159159	0
375	235282	45.742672159159	0
375	235737	45.747672159159	0
375	236093	45.752672159159	0
375	236094	45.757672159159	0
375	236390	46.505	1
375	237145	46.51	29
375	238927	46.515	0
375	240380	46.52	0
375	241260	46.525	0
375	242141	46.531638549387	0
375	243229	46.536638549387	0
375	244078	46.541638549387	0
375	244981	46.546638549387	0
375	245931	46.551638549387	0
375	246878	46.556638549387	0
375	247781	46.561928848117	0
375	248589	46.566928848117	0
375	249829	46.571928848117	0
375	250758	46.576928848117	0
375	252395	46.586614561558	0
375	252845	46.591614561558	0
375	253522	46.596614561558	0
375	254498	46.603560385613	0
375	255384	46.608560385613	0
375	255937	46.613560385613	0
375	256393	46.618560385613	0
375	258120	46.630220546798	0
375	258888	46.635220546798	0
375	259841	46.640220546798	0
375	260397	46.645220546798	0
375	261293	46.650220546798	0
375	262329	46.655220546798	0
375	263191	46.660220546798	0
375	263716	46.665220546798	0
375	264633	46.675316923303	0
375	265416	46.680316923303	0
375	266502	46.685316923303	0
375	267376	46.691101760438	0
375	268230	46.696101760438	0
375	269147	46.701101760438	0
375	269790	46.706101760438	0
375	270646	46.711101760438	0
375	271099	46.716101760438	0
375	271798	46.721101760438	0
375	273176	46.726101760438	0
375	273644	46.731101760438	0
375	274171	46.736101760438	0
375	275092	46.741933559002	0
375	275539	46.746933559002	0
375	276131	46.751933559002	0
375	276876	46.756933559002	0
375	277426	46.765199493231	0
375	278061	46.770199493231	0
375	278292	46.775199493231	0
375	278856	46.782020883542	0
375	279311	46.787020883542	0
375	280014	46.793258188397	0
375	280466	46.798258188397	0
375	280818	46.803258188397	0
375	280919	46.808258188397	0
375	283018	46.894181820392	0
375	283019	46.899181820392	0
375	283209	47.505	1
375	283316	47.51	0
375	284866	47.516209420111	25
375	286229	47.521209420111	0
375	287302	47.526209420111	0
375	288410	47.531209420111	0
375	289088	47.536209420111	0
375	290391	47.541209420111	0
375	291175	47.546209420111	0
375	291855	47.551209420111	0
375	292631	47.556209420111	0
375	293186	47.561209420111	0
375	294407	47.568144224339	0
375	295289	47.573144224339	0
375	295881	47.578144224339	0
375	296974	47.583144224339	0
375	298125	47.590016253687	0
375	298875	47.595016253687	0
375	299120	47.600016253687	0
375	300005	47.605016253687	0
375	300878	47.610016253687	0
375	301549	47.615016253687	0
375	302454	47.622157124032	0
375	303181	47.627157124032	0
375	303951	47.632157124032	0
375	305465	47.640841273295	0
375	306013	47.645841273295	0
375	306456	47.650841273295	0
375	307050	47.655841273295	0
375	307925	47.660841273295	0
375	308683	47.665841273295	0
375	309012	47.670841273295	0
375	309582	47.677939539848	0
375	310497	47.682939539848	0
375	311372	47.687939539848	0
375	312156	47.694226489253	0
375	312383	47.699226489253	0
375	313531	47.704226489253	0
375	313759	47.709226489253	0
375	314515	47.715572144195	0
375	314729	47.720572144195	0
375	315164	47.7344263218	0
375	315607	47.7394263218	0
375	316061	47.7444263218	0
375	316528	47.7494263218	0
375	317061	47.7544263218	0
375	317490	47.7594263218	0
375	317829	47.7644263218	0
375	318273	47.774723102216	0
375	318374	47.779723102216	0
375	318713	47.786233289584	0
375	318717	47.791233289584	0
375	319560	47.79932746086	0
375	319561	47.80432746086	0
375	319751	48.505	1
375	319858	48.51	0
375	320730	48.516345650856	18
375	321952	48.521345650856	0
375	322970	48.526345650856	0
375	324024	48.531345650856	0
375	324789	48.536345650856	0
375	325814	48.541345650856	0
375	326695	48.546345650856	0
375	327564	48.551345650856	0
375	328103	48.556345650856	0
375	328987	48.561345650856	0
375	330175	48.566345650856	0
375	330956	48.571345650856	0
375	331583	48.576345650856	0
375	332442	48.582116852685	0
375	333017	48.587116852685	0
375	333884	48.592116852685	0
375	334723	48.597116852685	0
375	335935	48.611790463141	0
375	336930	48.616790463141	0
375	337369	48.621790463141	0
375	338641	48.630023090175	0
375	339380	48.635023090175	0
375	340171	48.640023090175	0
375	340474	48.645023090175	0
375	341663	48.653196304368	0
375	342124	48.658196304368	0
375	342125	48.663196304368	0
375	342977	48.67826795455	0
375	343178	48.68326795455	0
375	344246	48.696041924079	0
375	344690	48.701041924079	0
375	344695	48.706041924079	0
375	345142	48.713508326547	0
375	345244	48.718508326547	0
375	346038	48.724390001434	0
375	346139	48.729390001434	0
375	346488	48.735774019773	0
375	346489	48.740774019773	0
375	346717	49.505	1
375	346824	49.51	0
375	348870	49.516605030039	32
375	350506	49.521605030039	0
375	351637	49.526605030039	0
375	352512	49.531605030039	0
375	353216	49.536605030039	0
375	357298	49.552075797367	0
375	358524	49.557075797367	0
375	359466	49.562075797367	0
375	360596	49.567075797367	0
375	362044	49.572075797367	0
375	363161	49.577075797367	0
375	364361	49.582075797367	0
375	365634	49.589404215444	0
375	366457	49.594404215444	0
375	367443	49.599404215444	0
375	368963	49.607484889655	0
375	369551	49.612484889655	0
375	372859	49.629751854973	0
375	373523	49.634751854973	0
375	374426	49.639751854973	0
375	375127	49.644751854973	0
375	377122	49.65574114585	0
375	377598	49.66074114585	0
375	378522	49.665962117201	0
375	379541	49.670962117201	0
375	380598	49.676400599053	0
375	381120	49.681400599053	0
375	382814	49.693090930079	0
375	383798	49.698090930079	0
375	384363	49.703090930079	0
375	384832	49.708090930079	0
375	385984	49.713090930079	0
375	386776	49.718090930079	0
375	387559	49.723904992617	0
375	388622	49.728904992617	0
375	389543	49.733904992617	0
375	390011	49.738904992617	0
375	390901	49.743904992617	0
375	391726	49.748904992617	0
375	392598	49.753904992617	0
375	393776	49.762029395124	0
375	394643	49.767029395124	0
375	396004	49.77451326641	0
375	396439	49.77951326641	0
375	397866	49.793229439992	0
375	398845	49.798229439992	0
375	399094	49.803229439992	0
375	400098	49.811195171446	0
375	400560	49.816195171446	0
375	401384	49.821195171446	0
375	401385	49.826195171446	0
375	401854	49.84020349438	0
375	402327	49.84520349438	0
375	403232	49.85334876667	0
375	403236	49.85834876667	0
375	403812	49.872649246826	0
375	404184	49.877649246826	0
375	404968	49.882649246826	0
375	405093	49.887649246826	0
375	405898	49.909258836706	0
375	406487	49.914258836706	0
375	406952	49.919258836706	0
375	407381	49.924258836706	0
375	407723	50.505	1
375	409052	50.51	43
375	411185	50.515	0
375	412652	50.52	0
375	413913	50.525217125624	0
375	414715	50.530217125624	0
375	415832	50.535217125624	0
375	417499	50.540217125624	0
375	418766	50.545217125624	0
375	420093	50.550217125624	0
375	421448	50.555217125624	0
375	422491	50.560217125624	0
375	428714	50.592927555086	0
375	429551	50.597927555086	0
375	431748	50.606863157967	0
375	432338	50.611863157967	0
375	433428	50.616863157967	0
375	434644	50.621863157967	0
375	435438	50.626863157967	0
375	436409	50.631863157967	0
375	437896	50.636863157967	0
375	439028	50.641863157967	0
375	440018	50.646863157967	0
375	443183	50.667012319588	0
375	444332	50.672012319588	0
375	445273	50.677012319588	0
375	446069	50.682012319588	0
375	447124	50.688812301739	0
375	447910	50.693812301739	0
375	450437	50.705024046947	0
375	451912	50.710024046947	0
375	452695	50.715024046947	0
375	453841	50.720024046947	0
375	454525	50.725024046947	0
375	455102	50.730024046947	0
375	456353	50.735703224668	0
375	457468	50.740703224668	0
375	458448	50.745703224668	0
375	459118	50.750703224668	0
375	459932	50.756303174268	0
375	460657	50.761303174268	0
375	462016	50.767172674852	0
375	463044	50.772172674852	0
375	463833	50.777254704052	0
375	464766	50.782254704052	0
375	466342	50.787254704052	0
375	467051	50.792254704052	0
375	467965	50.797254704052	0
375	468673	50.802254704052	0
375	469252	50.807254704052	0
375	471521	50.8227323293	0
375	472104	50.8277323293	0
375	472894	50.8327323293	0
375	473807	50.8377323293	0
375	475330	50.846736160086	0
375	476012	50.851736160086	0
375	477119	50.856736160086	0
375	477838	50.861736160086	0
375	478723	50.866736160086	0
375	479416	50.871736160086	0
375	480818	50.886111838841	0
375	481724	50.891111838841	0
375	482414	50.896111838841	0
375	483002	50.905365052468	0
375	483005	50.910365052468	0
375	483595	50.919355865168	0
375	484083	50.924355865168	0
375	484926	50.929355865168	0
375	485740	50.934355865168	0
375	485969	50.939355865168	0
375	487230	50.9459259972	0
375	487231	50.9509259972	0
375	487708	50.969943023914	0
375	487709	50.974943023914	0
375	487925	51.505	1
375	488032	51.51	0
375	488922	51.516451335927	18
375	490044	51.521451335927	0
375	490972	51.526451335927	0
375	491639	51.531451335927	0
375	492482	51.536451335927	0
375	493498	51.546915497248	0
375	494477	51.551915497248	0
375	495312	51.556915497248	0
375	496097	51.561915497248	0
375	496912	51.566915497248	0
375	497617	51.571915497248	0
375	498686	51.576915497248	0
375	499249	51.581915497248	0
375	500528	51.588681731012	0
375	501356	51.593681731012	0
375	501774	51.598681731012	0
375	504064	51.615939521036	0
375	504965	51.620939521036	0
375	505976	51.625939521036	0
375	506738	51.630939521036	0
375	507857	51.639162812052	0
375	508322	51.644162812052	0
375	508974	51.649162812052	0
375	509195	51.654162812052	0
375	510103	51.664157698612	0
375	511081	51.669157698612	0
375	511755	51.674157698612	0
375	512208	51.679157698612	0
375	512757	51.684157698612	0
375	513550	51.689157698612	0
375	514013	51.694157698612	0
375	514583	51.699157698612	0
375	515036	51.705583407541	0
375	515384	51.710583407541	0
375	515863	51.715583407541	0
375	516330	51.720583407541	0
375	516763	51.725583407541	0
375	517232	51.746827590881	0
375	517692	51.751827590881	0
375	517919	51.756827590881	0
375	518130	51.761827590881	0
375	518349	52.505	1
375	518456	52.51	0
375	520028	52.516703743911	24
375	521112	52.521703743911	0
375	522429	52.526703743911	0
375	523667	52.531703743911	0
375	524570	52.536703743911	0
375	525511	52.541703743911	0
375	526312	52.546703743911	0
375	528253	52.558063580743	0
375	528947	52.563063580743	0
375	529926	52.568063580743	0
375	530629	52.573063580743	0
375	531311	52.578063580743	0
375	532480	52.583888671912	0
375	533549	52.588888671912	0
375	534456	52.593888671912	0
375	535243	52.598888671912	0
375	535688	52.603888671912	0
375	537538	52.616258323634	0
375	538555	52.621258323634	0
375	540085	52.626258323634	0
375	541098	52.631258323634	0
375	542337	52.636258323634	0
375	542886	52.641258323634	0
375	543372	52.646258323634	0
375	544054	52.651258323634	0
375	544814	52.656258323634	0
375	545978	52.661258323634	0
375	546659	52.666258323634	0
375	547309	52.673567676977	0
375	548304	52.678567676977	0
375	550065	52.691717492641	0
375	550634	52.696717492641	0
375	551189	52.701717492641	0
375	552162	52.706717492641	0
375	553292	52.711717492641	0
375	554188	52.716717492641	0
375	554897	52.721717492641	0
375	555674	52.726717492641	0
375	556554	52.732620520904	0
375	557689	52.737620520904	0
375	558594	52.742620520904	0
375	559456	52.747620520904	0
375	559933	52.752620520904	0
375	561080	52.757620520904	0
375	562081	52.762620520904	0
375	563067	52.792282781364	0
375	563888	52.797282781364	0
375	564571	52.802282781364	0
375	564810	52.807282781364	0
375	565257	52.824178383916	0
375	565258	52.829178383916	0
375	565914	53.505	1
375	566021	53.51	0
375	568368	53.516309467274	56
375	570563	53.521309467274	0
375	572546	53.526700916537	0
375	574045	53.531700916537	0
375	576065	53.538895082349	0
375	577586	53.543895082349	0
375	578584	53.548895082349	0
375	579772	53.553895082349	0
375	581229	53.558895082349	0
375	582678	53.563895082349	0
375	584402	53.569148823453	0
375	585143	53.574148823453	0
375	586679	53.579148823453	0
375	588055	53.584148823453	0
375	590005	53.591900235106	0
375	591405	53.596900235106	0
375	592836	53.601900235106	0
375	595586	53.615395825557	0
375	596257	53.620395825557	0
375	597851	53.625686523259	0
375	598909	53.630686523259	0
375	600377	53.635686523259	0
375	602302	53.64332770392	0
375	603578	53.64832770392	0
375	604646	53.65332770392	0
375	606202	53.660272830323	0
375	607039	53.665272830323	0
375	608211	53.670272830323	0
375	611310	53.684613018532	0
375	612190	53.689613018532	0
375	613460	53.694613018532	0
375	614623	53.699613018532	0
375	616075	53.705641523228	0
375	617216	53.710641523228	0
375	618279	53.716971996354	0
375	619561	53.721971996354	0
375	620614	53.726971996354	0
375	621771	53.731971996354	0
375	623282	53.736971996354	0
375	624688	53.741971996354	0
375	625918	53.746971996354	0
375	626802	53.751971996354	0
375	628289	53.757517394152	0
375	628999	53.762517394152	0
375	630385	53.767577067939	0
375	631869	53.772577067939	0
375	633101	53.777577067939	0
375	635400	53.787392012812	0
375	636686	53.792392012812	0
375	637764	53.797392012812	0
375	638708	53.802392012812	0
375	639633	53.807392012812	0
375	640644	53.812392012812	0
375	641746	53.817392012812	0
375	643496	53.827455990394	0
375	644334	53.832455990394	0
375	645292	53.837455990394	0
375	647146	53.844334259903	0
375	648678	53.849334259903	0
375	650800	53.861084236318	0
375	652078	53.866084236318	0
375	653594	53.871084236318	0
375	654644	53.876084236318	0
375	656741	53.888111206999	0
375	657905	53.893111206999	0
375	662457	53.914598229001	0
375	663492	53.919598229001	0
375	664429	53.924598229001	0
375	665123	53.929598229001	0
375	665903	53.934598229001	0
375	668006	53.94539188292	0
375	668948	53.95039188292	0
375	670029	53.95539188292	0
375	670930	53.96039188292	0
375	671719	53.96539188292	0
375	672435	53.97039188292	0
375	673359	53.97539188292	0
375	673951	53.98039188292	0
375	674497	53.98539188292	0
375	675096	53.99039188292	0
375	675199	53.99539188292	0
375	676245	54.00109657253	0
375	677157	54.00609657253	0
375	678157	54.01109657253	0
375	680064	54.029014410227	0
375	681011	54.034014410227	0
375	681482	54.039014410227	0
375	681869	54.044014410227	0
375	682361	54.049014410227	0
375	682965	54.054014410227	0
375	683681	54.059014410227	0
375	684287	54.064014410227	0
375	684288	54.069014410227	0
375	684886	54.078116597767	0
375	685602	54.083116597767	0
375	686082	54.088116597767	0
375	686237	54.093116597767	0
375	686340	54.107095664354	0
375	687239	54.112095664354	0
375	687240	54.117095664354	0
375	687695	54.505	1
375	687802	54.51	0
375	689298	54.516727756988	30
375	690831	54.521727756988	0
375	692207	54.526727756988	0
375	693445	54.531727756988	0
375	694344	54.536727756988	0
375	695185	54.541727756988	0
375	696301	54.546727756988	0
375	697286	54.551727756988	0
375	698112	54.556727756988	0
375	699727	54.561727756988	0
375	700753	54.566727756988	0
375	701342	54.571727756988	0
375	702265	54.576727756988	0
375	703251	54.581727756988	0
375	704420	54.587031035148	0
375	705655	54.592031035148	0
375	706903	54.597031035148	0
375	708166	54.602031035148	0
375	708871	54.607031035148	0
375	709763	54.612031035148	0
375	711379	54.6176718996	0
375	711597	54.6226718996	0
375	713054	54.627891339347	0
375	713638	54.632891339347	0
375	714906	54.637891339347	0
375	715556	54.642891339347	0
375	716350	54.647891339347	0
375	718000	54.654749694053	0
375	718719	54.659749694053	0
375	719394	54.664749694053	0
375	720435	54.669749694053	0
375	721211	54.674749694053	0
375	722259	54.68120534858	0