version 2
run AODVScenario_1f-4-20121121-14:44:13-5192
attr configname AODVScenario_1f
attr datetime 20121121-14:44:13
attr experiment AODVScenario_1f
attr inifile AODV.ini
attr iterationvars $numNodes=54
attr iterationvars2 "$numNodes=54, $repetition=0"
attr measurement $numNodes=54
attr network csma802154net
attr numNodes 54
attr processid 5192
attr repetition 0
attr replication #0
attr resultdir results
attr runnumber 4
attr seedset 4

vector 227  csma802154net.dataCentricNetworkMan  RREQPacketFrequency  ETV
vector 228  csma802154net.dataCentricNetworkMan  RERRPacketFrequency  ETV
vector 229  csma802154net.dataCentricNetworkMan  DiscoveryPacketFrequency  ETV
vector 230  csma802154net.dataCentricNetworkMan  RegisterPacketFrequency  ETV
vector 231  csma802154net.dataCentricNetworkMan  RReplyPacketFrequency  ETV
vector 232  csma802154net.dataCentricNetworkMan  AODVDataPacketFrequency  ETV
vector 239  csma802154net.dataCentricNetworkMan  pendingRegistrationVector  ETV
vector 238  csma802154net.dataCentricNetworkMan  pendingRREQVector  ETV
vector 236  csma802154net.dataCentricNetworkMan  PendingDataPacketsVector  ETV
vector 252  csma802154net.fixhost[12].udpApp  "End-to-end delay"  ETV
vector 224  csma802154net.dataCentricNetworkMan  dataPacketE2EDelay  ETV
vector 250  csma802154net.fixhost[10].udpApp  "End-to-end delay"  ETV
vector 253  csma802154net.fixhost[13].udpApp  "End-to-end delay"  ETV
vector 248  csma802154net.fixhost[8].udpApp  "End-to-end delay"  ETV
vector 266  csma802154net.fixhost[26].udpApp  "End-to-end delay"  ETV
vector 257  csma802154net.fixhost[17].udpApp  "End-to-end delay"  ETV
vector 244  csma802154net.fixhost[4].udpApp  "End-to-end delay"  ETV
vector 245  csma802154net.fixhost[5].udpApp  "End-to-end delay"  ETV
vector 246  csma802154net.fixhost[6].udpApp  "End-to-end delay"  ETV
vector 249  csma802154net.fixhost[9].udpApp  "End-to-end delay"  ETV
vector 254  csma802154net.fixhost[14].udpApp  "End-to-end delay"  ETV
vector 258  csma802154net.fixhost[18].udpApp  "End-to-end delay"  ETV
224	347666	70.010876051621	0.010876051621
224	347953	70.01368404088	0.01368404088
224	348243	70.016276071487	0.016276071487
224	349814	71.018196060271	0.018196060271
224	350523	71.025156116924	0.025156116924
224	350834	71.052572089668	0.052572089668
224	353231	72.035356095276	0.035356095276
224	354115	72.067492144756	0.067492144756
224	354741	72.077332184877	0.077332184877
224	356805	73.025796086884	0.025796086884
224	357722	73.054164118013	0.054164118013
224	358594	73.069412149038	0.069412149038
224	425565	670.012476051621	0.012476051621
224	425849	670.014716040881	0.014716040881
224	426139	670.017236071488	0.017236071488
224	427427	671.016916060271	0.016916060271
224	428010	671.024164089667	0.024164089667
224	428605	671.032372116923	0.032372116923
224	430996	672.031516095275	0.031516095275
224	431881	672.061164144755	0.061164144755
224	432507	672.069724184877	0.069724184877
224	434565	673.024516086886	0.024516086886
224	435746	673.057004149038	0.057004149038
224	436364	673.064900118014	0.064900118014
224	503338	1270.011196040881	0.011196040881
224	503630	1270.014324051621	0.014324051621
224	503907	1270.021324071488	0.021324071488
224	505471	1271.021036089667	0.021036089667
224	505785	1271.02388406027	0.02388406027
224	506377	1271.037492116923	0.037492116923
224	509234	1272.04967615871	0.04967615871
224	509538	1272.057036163769	0.057036163769
224	510164	1272.064956203891	0.064956203891
224	512232	1273.026756086886	0.026756086886
224	513727	1273.067812149039	0.067812149039
224	514031	1273.070268118013	0.070268118013
224	581050	1870.012156051621	0.012156051621
224	581339	1870.016244040881	0.016244040881
224	581632	1870.020044071487	0.020044071487
224	583315	1871.021676089668	0.021676089668
224	583629	1871.028932060271	0.028932060271
224	584222	1871.050364116924	0.050364116924
224	587080	1872.043916158712	0.043916158712
224	587381	1872.046156163771	0.046156163771
224	588006	1872.053436203893	0.053436203893
224	590206	1873.023236086884	0.023236086884
224	591420	1873.036244118011	0.036244118011
224	591704	1873.039156149037	0.039156149037
224	658672	2470.012796051621	0.012796051621
224	658960	2470.015676040881	0.015676040881
224	659249	2470.017876071488	0.017876071488
224	660537	2471.016596060271	0.016596060271
224	661120	2471.027364089667	0.027364089667
224	661711	2471.034684116923	0.034684116923
224	664411	2472.035604095276	0.035604095276
224	664711	2472.038092113038	0.038092113038
224	665626	2472.069692161178	0.069692161178
224	668450	2473.033756118603	0.033756118603
224	669629	2473.062692149039	0.062692149039
224	669938	2473.06749214053	0.06749214053
224	736911	3070.011836040881	0.011836040881
224	737198	3070.013756051621	0.013756051621
224	737474	3070.017556071488	0.017556071488
224	738761	3071.017876060271	0.017876060271
224	739339	3071.024236089668	0.024236089668
224	739934	3071.034044116923	0.034044116923
224	742332	3072.035356095276	0.035356095276
224	743218	3072.065324144757	0.065324144757
224	743843	3072.074844184879	0.074844184879
224	746135	3073.026436086886	0.026436086886
224	746818	3073.033044118013	0.033044118013
224	747694	3073.062372149038	0.062372149038
224	814729	3670.014396040881	0.014396040881
224	815022	3670.017524051621	0.017524051621
224	815298	3670.023884071488	0.023884071488
224	816866	3671.020396089668	0.020396089668
224	817464	3671.027964116924	0.027964116924
224	817779	3671.034620060271	0.034620060271
224	820631	3672.047116158708	0.047116158708
224	820935	3672.052556163768	0.052556163768
224	821561	3672.06335620389	0.06335620389
224	823502	3673.023876086885	0.023876086885
224	824700	3673.036884118012	0.036884118012
224	825285	3673.059244149036	0.059244149036
224	892257	4270.011836051621	0.011836051621
224	892537	4270.016276071488	0.016276071488
224	892822	4270.02129204088	0.02129204088
224	894127	4271.01691606027	0.01691606027
224	894711	4271.025444089665	0.025444089665
224	895305	4271.034932116921	0.034932116921
224	897701	4272.033436095274	0.033436095274
224	898301	4272.060812113037	0.060812113037
224	899215	4272.076340161176	0.076340161176
224	902040	4273.037596118602	0.037596118602
224	902901	4273.064044149034	0.064044149034
224	903522	4273.073252140527	0.073252140527
224	970483	4870.012796051621	0.012796051621
224	970759	4870.016276071488	0.016276071488
224	971043	4870.019836040881	0.019836040881
224	972348	4871.017876060271	0.017876060271
224	972931	4871.026404089667	0.026404089667
224	973522	4871.033724116923	0.033724116923
224	975860	4872.028636095276	0.028636095276
224	976519	4872.060172113039	0.060172113039
224	977433	4872.074100161179	0.074100161179
224	980065	4873.037876149039	0.037876149039
224	980675	4873.061772118603	0.061772118603
224	982611	4873.142084140529	0.142084140529
224	1049630	5470.01439605162	0.01439605162
224	1049919	5470.01784404088	0.01784404088
224	1050212	5470.022604071486	0.022604071486
224	1051503	5471.018196060268	0.018196060268
224	1052081	5471.025124089666	0.025124089666
224	1052672	5471.032444116922	0.032444116922
224	1054952	5472.029916095276	0.029916095276
224	1055963	5472.067492144756	0.067492144756
224	1056588	5472.075732184878	0.075732184878
224	1058655	5473.023556086886	0.023556086886
224	1059861	5473.058252118014	0.058252118014
224	1060439	5473.064540149039	0.064540149039
224	1127831	6070.012476040881	0.012476040881
224	1128129	6070.036084051621	0.036084051621
224	1128404	6070.040204071488	0.040204071488
224	1129971	6071.020396089667	0.020396089667
224	1130278	6071.022924060271	0.022924060271
224	1130870	6071.031804116923	0.031804116923
224	1133263	6072.032796095275	0.032796095275
224	1133860	6072.056084113038	0.056084113038
224	1134774	6072.068732161178	0.068732161178
224	1136832	6073.023876086886	0.023876086886
224	1138044	6073.057292118013	0.057292118013
224	1138629	6073.066460149039	0.066460149039
224	1205601	6670.011196051621	0.011196051621
224	1205876	6670.014676071487	0.014676071487
224	1206161	6670.017844040881	0.017844040881
224	1207737	6671.019756089668	0.019756089668
224	1208618	6671.052212116923	0.052212116923
224	1208933	6671.057660060271	0.057660060271
224	1211205	6672.034076095273	0.034076095273
224	1212084	6672.044524144755	0.044524144755
224	1212710	6672.055004184877	0.055004184877
224	1214767	6673.025476086885	0.025476086885
224	1215973	6673.056724118014	0.056724118014
224	1216555	6673.063332149038	0.063332149038
224	1283580	7270.012476051621	0.012476051621
224	1284264	7270.038964040881	0.038964040881
224	1284551	7270.040844071488	0.040844071488
224	1285953	7271.01627606027	0.01627606027
224	1286540	7271.044004089667	0.044004089667
224	1287557	7271.074932116923	0.074932116923
224	1290415	7272.041996158712	0.041996158712
224	1290713	7272.043916163771	0.043916163771
224	1291339	7272.053116203893	0.053116203893
224	1293912	7273.036916149038	0.036916149038
224	1294596	7273.068172118604	0.068172118604
224	1295217	7273.07830014053	0.07830014053
227	434	1.005	1
227	589	1.01	16
227	886	1.015	22
227	1326	1.02	29
227	2202	1.025	19
227	2830	1.03	39
227	3653	1.035	47
227	4516	1.04	24
227	5105	1.045	7
227	5935	1.05	56
227	6477	1.055	38
227	6805	1.06	14
227	7128	1.065	31
227	7404	1.07	20
227	7781	1.075	30
227	7895	1.08	13
227	7959	1.085	0
227	8250	1.091266134176	35
227	8692	1.096266134176	38
227	9152	1.101266134176	31
227	9385	1.106266134176	13
227	9535	1.111266134176	19
227	9745	1.116266134176	20
227	9746	1.121266134176	0
227	9947	1.12973625947	17
227	9948	1.13473625947	0
227	10145	1.155441843703	17
227	10146	1.160441843703	0
227	14845	43.505	1
227	15237	43.51	27
227	16539	43.515	0
227	17205	43.52	0
227	17826	43.525	0
227	18340	43.53	0
227	18949	43.535	0
227	19709	43.54	0
227	20292	43.545	0
227	20902	43.552515382657	0
227	21536	43.557515382657	0
227	22253	43.562515382657	0
227	23231	43.569320687544	0
227	23992	43.574320687544	0
227	24661	43.580851526387	0
227	25172	43.585851526387	0
227	25848	43.590872605607	0
227	26436	43.595872605607	0
227	27229	43.604204348304	0
227	27754	43.609204348304	0
227	28310	43.614204348304	0
227	28642	43.619204348304	0
227	29426	43.624622890441	0
227	30058	43.629622890441	0
227	30525	43.634622890441	0
227	31041	43.639622890441	0
227	31620	43.644622890441	0
227	32862	43.656656620041	0
227	33053	43.661656620041	0
227	33904	43.668889837735	0
227	34253	43.673889837735	0
227	34929	43.681130186839	0
227	35376	43.686130186839	0
227	36001	43.691130186839	0
227	37039	43.708659937903	0
227	37595	43.713659937903	0
227	38478	43.722864716028	0
227	38828	43.727864716028	0
227	39361	43.732864716028	0
227	39899	43.737864716028	0
227	40347	43.742864716028	0
227	41081	43.750516149991	0
227	41559	43.755516149991	0
227	41894	43.760516149991	0
227	42453	43.765516149991	0
227	42597	43.770516149991	0
227	43145	43.775516149991	0
227	43491	43.780516149991	0
227	43953	43.785516149991	0
227	44407	43.790516149991	0
227	44745	43.795744302047	0
227	44879	43.800744302047	0
227	45941	43.813307954538	0
227	46010	43.818307954538	0
227	46292	43.824938389355	0
227	46511	43.829938389355	0
227	46783	43.834938389355	0
227	47597	43.851141833349	0
227	47598	43.856141833349	0
227	47983	43.865744956878	0
227	47984	43.870744956878	0
227	48259	43.89215231876	0
227	48260	43.89715231876	0
227	48385	44.505	1
227	48690	44.51	16
227	49387	44.515	0
227	49852	44.52	0
227	50197	44.525	0
227	50443	44.53	0
227	50751	44.535	0
227	51204	44.54	0
227	51856	44.545	0
227	52232	44.55	0
227	52829	44.558295650963	0
227	53166	44.563295650963	0
227	54338	44.573149638838	0
227	54921	44.578149638838	0
227	55125	44.583149638838	0
227	55892	44.592533660604	0
227	56300	44.597533660604	0
227	56680	44.602533660604	0
227	56985	44.607533660604	0
227	57471	44.61322964387	0
227	57803	44.61822964387	0
227	58210	44.623304874091	0
227	58485	44.628304874091	0
227	59051	44.633304874091	0
227	59060	44.638304874091	0
227	59789	44.650981346948	0
227	60289	44.655981346948	0
227	60884	44.665144807661	0
227	61145	44.670144807661	0
227	61997	44.683634116393	0
227	62315	44.688634116393	0
227	63258	44.706135653349	0
227	63644	44.711135653349	0
227	63925	44.716135653349	0
227	64476	44.723377417387	0
227	64854	44.728377417387	0
227	65121	44.735863120416	0
227	65246	44.740863120416	0
227	66543	44.767800894818	0
227	66544	44.772800894818	0
227	67092	44.786342135117	0
227	67346	44.791342135117	0
227	67471	45.505	1
227	67764	45.51	17
227	68495	45.515	0
227	69026	45.52	0
227	69510	45.525	0
227	69841	45.53	0
227	70382	45.536670758458	0
227	70805	45.541670758458	0
227	71218	45.546670758458	0
227	71816	45.560086138219	0
227	72231	45.565086138219	0
227	72810	45.570086138219	0
227	73136	45.575086138219	0
227	73478	45.580086138219	0
227	73697	45.585086138219	0
227	74082	45.590086138219	0
227	74598	45.595086138219	0
227	74867	45.600086138219	0
227	74933	45.605086138219	0
227	75622	45.614646367794	0
227	76153	45.619646367794	0
227	76647	45.624646367794	0
227	76988	45.629646367794	0
227	77474	45.634646367794	0
227	77977	45.639646367794	0
227	78044	45.644646367794	0
227	78543	45.65050174804	0
227	78812	45.65550174804	0
227	78820	45.66050174804	0
227	79607	45.67101301944	0
227	79608	45.67601301944	0
227	79882	45.690951991469	0
227	79946	45.695951991469	0
227	80156	45.701197395877	0
227	80220	45.706197395877	0
227	80428	45.711517045174	0
227	80429	45.716517045174	0
227	80545	46.505	1
227	80615	46.51	0
227	81834	46.516015558846	23
227	82796	46.521015558846	0
227	83509	46.526015558846	0
227	84093	46.531015558846	0
227	84428	46.536015558846	0
227	85046	46.541015558846	0
227	85640	46.546015558846	0
227	86241	46.551015558846	0
227	87566	46.560897198736	0
227	88257	46.565897198736	0
227	88947	46.570897198736	0
227	89739	46.575897198736	0
227	90290	46.580897198736	0
227	91520	46.591888097746	0
227	92217	46.596888097746	0
227	92862	46.601888097746	0
227	93463	46.608422931348	0
227	93982	46.613422931348	0
227	94392	46.618422931348	0
227	95113	46.624281223549	0
227	95494	46.629281223549	0
227	96679	46.642858013099	0
227	97256	46.647858013099	0
227	97962	46.652858013099	0
227	98414	46.657858013099	0
227	98900	46.663118955144	0
227	99296	46.668118955144	0
227	100305	46.680827894511	0
227	100693	46.685827894511	0
227	101109	46.690827894511	0
227	101589	46.698989625878	0
227	101977	46.703989625878	0
227	102929	46.717253568698	0
227	103340	46.722253568698	0
227	103614	46.727253568698	0
227	104156	46.732347500238	0
227	104433	46.737347500238	0
227	104964	46.742347500238	0
227	105450	46.747347500238	0
227	105791	46.752347500238	0
227	106271	46.757347500238	0
227	107091	46.773643697261	0
227	107518	46.778643697261	0
227	107584	46.783643697261	0
227	108202	46.791304361873	0
227	108410	46.796304361873	0
227	108706	46.803650585111	0
227	108972	46.808650585111	0
227	109319	46.815336414218	0
227	109524	46.820336414218	0
227	109989	46.837565899243	0
227	110269	46.842565899243	0
227	110478	46.847565899243	0
227	110479	46.852565899243	0
227	110758	46.863052596223	0
227	110759	46.868052596223	0
227	110875	47.505	1
227	110885	47.51	0
227	111917	47.517092044122	28
227	112769	47.522092044122	0
227	113377	47.527092044122	0
227	113966	47.532206020337	0
227	114382	47.537206020337	0
227	114988	47.542206020337	0
227	115556	47.547206020337	0
227	116336	47.552206020337	0
227	118109	47.568795657386	0
227	118593	47.573795657386	0
227	119430	47.581184104179	0
227	119991	47.586184104179	0
227	120376	47.591184104179	0
227	120878	47.596184104179	0
227	122021	47.605427655232	0
227	122321	47.610427655232	0
227	124676	47.634817569434	0
227	125188	47.639817569434	0
227	125419	47.644817569434	0
227	126933	47.656125716763	0
227	127432	47.661125716763	0
227	128781	47.676867204853	0
227	129428	47.681867204853	0
227	130472	47.692070663769	0
227	130985	47.697070663769	0
227	131573	47.703029995391	0
227	132022	47.708029995391	0
227	132948	47.71954542484	0
227	133308	47.72454542484	0
227	134064	47.731415509556	0
227	134838	47.736415509556	0
227	135262	47.741415509556	0
227	135645	47.746415509556	0
227	136105	47.751415509556	0
227	137024	47.758419954995	0
227	137575	47.763419954995	0
227	138977	47.776421746156	0
227	139336	47.781421746156	0
227	139969	47.786421746156	0
227	140635	47.791421746156	0
227	141192	47.796421746156	0
227	141893	47.803620069001	0
227	142389	47.808620069001	0
227	142784	47.813620069001	0
227	143134	47.818620069001	0
227	143474	47.823620069001	0
227	143897	47.828620069001	0
227	144301	47.833620069001	0
227	144942	47.839444020143	0
227	145360	47.844444020143	0
227	145683	47.849444020143	0
227	146228	47.854893953088	0
227	146367	47.859893953088	0
227	146867	47.86608615182	0
227	147336	47.87108615182	0
227	147569	47.87608615182	0
227	147975	47.88108615182	0
227	148324	47.889691317956	0
227	148824	47.894691317956	0
227	148826	47.899691317956	0
227	149117	47.915564541688	0
227	149118	47.920564541688	0
227	149522	48.505	1
227	150231	48.51	31
227	151739	48.515	0
227	152450	48.52	0
227	153087	48.525	0
227	153436	48.53	0
227	154152	48.535889814486	0
227	154951	48.540889814486	0
227	155814	48.545889814486	0
227	156926	48.554018049478	0
227	157386	48.559018049478	0
227	157937	48.564018049478	0
227	160685	48.589511926408	0
227	161160	48.594511926408	0
227	161913	48.600701587605	0
227	162444	48.605701587605	0
227	163868	48.618393827444	0
227	164549	48.623393827444	0
227	165741	48.630439426331	0
227	166425	48.635439426331	0
227	166984	48.640439426331	0
227	167601	48.645439426331	0
227	169397	48.659949541696	0
227	169956	48.664949541696	0
227	170889	48.671981003365	0
227	171307	48.676981003365	0
227	172375	48.688279077026	0
227	172876	48.693279077026	0
227	174030	48.701825144929	0
227	174591	48.706825144929	0
227	175172	48.711825144929	0
227	175740	48.716825144929	0
227	176182	48.721825144929	0
227	176826	48.726825144929	0
227	177448	48.731825144929	0
227	177792	48.736825144929	0
227	178539	48.747279626166	0
227	178961	48.752279626166	0
227	179838	48.7610140448	0
227	180222	48.7660140448	0
227	180572	48.773724109748	0
227	181070	48.778724109748	0
227	182649	48.799822923615	0
227	183176	48.804822923615	0
227	183531	48.809822923615	0
227	183964	48.814822923615	0
227	184335	48.819822923615	0
227	184751	48.824822923615	0
227	185123	48.829822923615	0
227	186013	48.840469745687	0
227	186489	48.845469745687	0
227	187333	48.852663014505	0
227	187730	48.857663014505	0
227	188083	48.870900950084	0
227	188656	48.875900950084	0
227	189486	48.902957910811	0
227	189986	48.907957910811	0
227	190050	48.912957910811	0
227	190581	48.927161735175	0
227	190937	48.932161735175	0
227	191224	48.937161735175	0
227	191452	48.942161735175	0
227	191733	48.948949621387	0
227	191734	48.953949621387	0
227	192347	49.005269801562	0
227	192413	49.010269801562	0
227	192516	49.505	1
227	193185	49.51	24
227	193965	49.515	0
227	194648	49.52	0
227	195171	49.525	0
227	195571	49.53	0
227	196321	49.53536305566	0
227	196899	49.54036305566	0
227	197633	49.545656838383	0
227	198738	49.550656838383	0
227	199455	49.555656838383	0
227	200022	49.560656838383	0
227	200659	49.565656838383	0
227	201089	49.570656838383	0
227	201917	49.577801670585	0
227	202569	49.582801670585	0
227	203115	49.587801670585	0
227	204226	49.602311295121	0
227	204717	49.607311295121	0
227	205543	49.61845919264	0
227	205975	49.62345919264	0
227	206331	49.62845919264	0
227	206792	49.63345919264	0
227	207343	49.63845919264	0
227	208137	49.64345919264	0
227	208766	49.64845919264	0
227	209297	49.65345919264	0
227	209639	49.65845919264	0
227	209937	49.66345919264	0
227	210498	49.66845919264	0
227	210950	49.67345919264	0
227	211514	49.679975933116	0
227	212048	49.684975933116	0
227	212404	49.689975933116	0
227	212685	49.694975933116	0
227	212996	49.699975933116	0
227	213463	49.704975933116	0
227	213678	49.709975933116	0
227	214316	49.714975933116	0
227	214386	49.719975933116	0
227	214754	49.725903638337	0
227	215243	49.730903638337	0
227	215816	49.738737686919	0
227	216088	49.743737686919	0
227	216395	49.74927401447	0
227	216909	49.75427401447	0
227	217168	49.75927401447	0
227	217437	49.766697609855	0
227	217585	49.771697609855	0
227	218545	49.785737746358	0
227	219150	49.790737746358	0
227	219151	49.795737746358	0
227	219991	49.82369804138	0
227	219992	49.82869804138	0
227	221949	50.505	1
227	222404	50.51	31
227	223648	50.515	0
227	224520	50.52	0
227	225217	50.525	0
227	225907	50.53	0
227	226734	50.535	0
227	227439	50.54	0
227	228007	50.545	0
227	228725	50.55	0
227	229846	50.559894663072	0
227	230518	50.564894663072	0
227	231342	50.569894663072	0
227	231849	50.574894663072	0
227	232421	50.579894663072	0
227	234311	50.595476618137	0
227	234761	50.600476618137	0
227	235537	50.606898521582	0
227	236047	50.611898521582	0
227	236802	50.617468450506	0
227	237562	50.622468450506	0
227	238762	50.632228475539	0
227	239336	50.637228475539	0
227	240526	50.647756629986	0
227	241176	50.652756629986	0
227	242331	50.663732633994	0
227	242713	50.668732633994	0
227	243482	50.673732633994	0
227	244613	50.682468388253	0
227	244912	50.687468388253	0
227	245703	50.694613335881	0
227	246467	50.699613335881	0
227	247196	50.704613335881	0
227	247669	50.709613335881	0
227	248504	50.718333350059	0
227	249028	50.723333350059	0
227	249379	50.728333350059	0
227	249979	50.733333350059	0
227	250418	50.738333350059	0
227	250978	50.743333350059	0
227	251543	50.748333350059	0
227	251999	50.753333350059	0
227	252646	50.758333350059	0
227	253272	50.763333350059	0
227	253690	50.768333350059	0
227	254210	50.773333350059	0
227	254577	50.778333350059	0
227	255293	50.783752916911	0
227	255795	50.788752916911	0
227	256150	50.793752916911	0
227	256803	50.798752916911	0
227	257091	50.80753575417	0
227	257502	50.81253575417	0
227	259072	50.833938996726	0
227	259281	50.838938996726	0
227	259920	50.863660849127	0
227	260074	50.868660849127	0
227	260653	50.889604414791	0
227	260654	50.894604414791	0
227	261217	50.939071657697	0
227	261218	50.944071657697	0
227	261284	50.962686564845	0
227	261516	50.967686564845	0
227	261517	50.972686564845	0
227	261656	51.505	1
227	261956	51.51	16
227	262866	51.515	0
227	263648	51.52	0
227	264495	51.525	0
227	265126	51.53	0
227	265744	51.535	0
227	266166	51.54	0
227	266895	51.545	0
227	267324	51.55	0
227	268083	51.555	0
227	268675	51.56	0
227	269105	51.565	0
227	269750	51.57	0
227	270257	51.575	0
227	270870	51.58	0
227	271428	51.585	0
227	271913	51.59	0
227	272834	51.602015504222	0
227	273491	51.607015504222	0
227	274524	51.6257633447	0
227	275054	51.6307633447	0
227	275629	51.6357633447	0
227	275975	51.6407633447	0
227	276397	51.653989593198	0
227	276745	51.658989593198	0
227	276963	51.663989593198	0
227	276968	51.668989593198	0
227	277825	51.680427371605	0
227	278405	51.685427371605	0
227	278686	51.690427371605	0
227	279170	51.701674043254	0
227	279325	51.706674043254	0
227	279559	51.712702320589	0
227	279560	51.717702320589	0
227	279699	52.505	1
227	279712	52.51	0
227	280602	52.516977126336	20
227	281286	52.521977126336	0
227	281868	52.526977126336	0
227	282175	52.531977126336	0
227	282778	52.536977126336	0
227	283415	52.541977126336	0
227	284039	52.546977126336	0
227	284614	52.551977126336	0
227	285113	52.556977126336	0
227	285750	52.561977126336	0
227	286136	52.566977126336	0
227	286672	52.571977126336	0
227	287173	52.576977126336	0
227	287624	52.581977126336	0
227	288054	52.586977126336	0
227	288602	52.591977126336	0
227	289144	52.596977126336	0
227	289589	52.601977126336	0
227	290026	52.606977126336	0
227	290604	52.611977126336	0
227	290986	52.616977126336	0
227	291590	52.621977126336	0
227	292153	52.626977126336	0
227	292750	52.631977126336	0
227	293258	52.636977126336	0
227	293782	52.641977126336	0
227	294222	52.646977126336	0
227	295219	52.664339762042	0
227	295576	52.669339762042	0
227	295862	52.674339762042	0
227	296808	52.688381856372	0
227	297183	52.693381856372	0
227	298064	52.701580298523	0
227	298132	52.706580298523	0
227	298439	52.711885183327	0
227	298978	52.716885183327	0
227	299353	52.721885183327	0
227	300503	52.732185518866	0
227	300743	52.737185518866	0
227	300904	52.742185518866	0
227	301186	52.747185518866	0
227	301331	52.755336184315	0
227	301332	52.760336184315	0
227	302076	53.505	1
227	302283	53.51	15
227	303011	53.515	0
227	303771	53.52	0
227	304189	53.525	0
227	304442	53.53	0
227	304601	53.535	0
227	304885	53.54	0
227	305918	53.552999820369	0
227	306246	53.557999820369	0
227	306847	53.56308060039	0
227	307346	53.56808060039	0
227	307694	53.57308060039	0
227	308735	53.580621221367	0
227	309469	53.585621221367	0
227	310169	53.594421247717	0
227	310528	53.599421247717	0
227	311143	53.604421247717	0
227	311355	53.609421247717	0
227	312329	53.623073716843	0
227	312672	53.628073716843	0
227	313277	53.634012141401	0
227	313822	53.639012141401	0
227	314373	53.645060294411	0
227	314655	53.650060294411	0
227	314661	53.655060294411	0
227	316108	53.674128631194	0
227	316478	53.679128631194	0
227	317003	53.684128631194	0
227	317301	53.689128631194	0
227	317737	53.69596580706	0
227	317956	53.70096580706	0
227	318200	53.706637820884	0
227	318201	53.711637820884	0
227	318914	53.725008121767	0
227	318915	53.730008121767	0
227	319221	53.748730838835	0
227	319222	53.753730838835	0
227	319513	53.764552149457	0
227	319514	53.769552149457	0
227	319730	54.505	1
227	320651	54.51	23
227	321319	54.515	0
227	322316	54.52	0
227	323055	54.525	0
227	323635	54.53	0
227	324015	54.535	0
227	324762	54.54	0
227	325366	54.545	0
227	325808	54.55	0
227	326813	54.556222900172	0
227	327415	54.561222900172	0
227	328321	54.569808023195	0
227	329143	54.574808023195	0
227	329520	54.579808023195	0
227	330297	54.585567484575	0
227	330875	54.590567484575	0
227	331260	54.595567484575	0
227	331875	54.600567484575	0
227	332581	54.605567484575	0
227	333012	54.610567484575	0
227	333451	54.615567484575	0
227	333805	54.620567484575	0
227	334104	54.625567484575	0
227	334666	54.630567484575	0
227	335020	54.635567484575	0
227	335530	54.641325471598	0
227	335540	54.646325471598	0
227	335980	54.654478951316	0
227	336391	54.659478951316	0
227	337445	54.671218942302	0
227	337822	54.676218942302	0
227	338438	54.681218942302	0
227	338940	54.686218942302	0
227	339470	54.693202981901	0
227	339832	54.698202981901	0
227	340199	54.703202981901	0
227	340704	54.708202981901	0
227	341406	54.716795225071	0
227	341858	54.721795225071	0
227	342234	54.727901459307	0
227	342619	54.732901459307	0
227	343073	54.737901459307	0
227	343162	54.742901459307	0
227	343847	54.752023641917	0
227	344093	54.757023641917	0
227	344094	54.762023641917	0
227	344405	54.774619576599	0
227	344406	54.779619576599	0
227	344712	54.790522051467	0
227	344713	54.795522051467	0
227	345024	54.831666074124	0
227	345025	54.836666074124	0
227	347249	70.00501	0
227	347591	70.01001	0
227	348112	70.01501	0
227	348382	70.02001	0
227	348383	70.02501	0
227	348782	71.00501	0
227	349143	71.01001	0
227	349569	71.01501	0
227	350023	71.02001	0
227	350372	71.02501	0
227	350684	71.03001	0
227	350685	71.03501	0
227	350988	71.057572089668	0
227	350989	71.062572089668	0
227	351399	72.00501	0
227	351714	72.01001	0
227	351715	72.01501	0
227	352337	72.023556037753	0
227	352625	72.028556037753	0
227	352949	72.033556037753	0
227	353380	72.038556037753	0
227	353381	72.043556037753	0
227	353960	72.063932101189	0
227	354268	72.068932101189	0
227	354580	72.073932101189	0
227	354879	72.078932101189	0
227	354880	72.083932101189	0
227	355307	73.00501	0
227	355622	73.01001	0
227	355933	73.01501	0
227	356284	73.02001	0
227	356713	73.02501	0
227	356949	73.03001	0
227	356950	73.03501	0
227	357306	73.050284091102	0
227	357863	73.055284091102	0
227	358210	73.060284091102	0
227	358447	73.065284091102	0
227	358739	73.070284091102	0
227	358740	73.075284091102	0
227	425146	670.00501	0
227	425428	670.01001	0
227	425911	670.01501	0
227	426278	670.02001	0
227	426279	670.02501	0
227	426675	671.00501	0
227	426976	671.01001	0
227	427269	671.01501	0
227	427641	671.02001	0
227	428164	671.02501	0
227	428454	671.03001	0
227	428763	671.03501	0
227	428764	671.04001	0
227	429086	672.00501	0
227	429489	672.01001	0
227	429804	672.01501	0
227	430115	672.02001	0
227	430400	672.02501	0
227	430836	672.03001	0
227	431145	672.03501	0
227	431146	672.04001	0
227	431726	672.057924101189	0
227	432034	672.062924101189	0
227	432349	672.067924101189	0
227	432645	672.072924101189	0
227	432646	672.077924101189	0
227	433073	673.00501	0
227	433388	673.01001	0
227	433699	673.01501	0
227	434110	673.02001	0
227	434627	673.02501	0
227	434710	673.03001	0
227	435292	673.049964091103	0
227	435599	673.054964091103	0
227	436105	673.059964091103	0
227	436365	673.064964091103	0
227	436503	673.069964091103	0
227	502909	1270.00501	0
227	503254	1270.01001	0
227	503766	1270.01501	0
227	503776	1270.02001	0
227	504046	1270.026324071488	0
227	504047	1270.031324071488	0
227	504443	1271.00501	0
227	504744	1271.01001	0
227	505037	1271.01501	0
227	505385	1271.02001	0
227	505936	1271.02501	0
227	505937	1271.03001	0
227	506535	1271.038372103414	0
227	506536	1271.043372103414	0
227	506949	1272.00501	0
227	507264	1272.01001	0
227	507576	1272.01501	0
227	507577	1272.02001	0
227	508175	1272.028966053612	0
227	508530	1272.033966053612	0
227	508756	1272.038966053612	0
227	508820	1272.043966053612	0
227	509134	1272.049276142412	0
227	509383	1272.054276142412	0
227	509694	1272.059276142412	0
227	510066	1272.064276142412	0
227	510302	1272.069276142412	0
227	510303	1272.074276142412	0
227	510730	1273.00501	0
227	511045	1273.01001	0
227	511356	1273.01501	0
227	511647	1273.02001	0
227	512017	1273.02501	0
227	512376	1273.03001	0
227	512377	1273.03501	0
227	512959	1273.056292091103	0
227	513180	1273.061292091103	0
227	513580	1273.066292091103	0
227	514169	1273.071292091103	0
227	514170	1273.076292091103	0
227	580630	1870.00501	0
227	580912	1870.01001	0
227	581198	1870.01501	0
227	581558	1870.02001	0
227	581771	1870.02501	0
227	581772	1870.03001	0
227	582087	1871.00501	0
227	582469	1871.01001	0
227	582765	1871.01501	0
227	583053	1871.02001	0
227	583472	1871.02501	0
227	583780	1871.03001	0
227	583781	1871.03501	0
227	584284	1871.050604103415	0
227	584381	1871.055604103415	0
227	584791	1872.00501	0
227	585106	1872.01001	0
227	585421	1872.01501	0
227	585732	1872.02001	0
227	586083	1872.02501	0
227	586372	1872.03001	0
227	586600	1872.03501	0