file 244139 1353540160                                          
version 2
run AODVScenario_1f-74-20121121-15:05:54-288
attr configname AODVScenario_1f
attr datetime 20121121-15:05:54
attr experiment AODVScenario_1f
attr inifile AODV.ini
attr iterationvars $numNodes=124
attr iterationvars2 "$numNodes=124, $repetition=0"
attr measurement $numNodes=124
attr network csma802154net
attr numNodes 124
attr processid 288
attr repetition 0
attr replication #0
attr resultdir results
attr runnumber 74
attr seedset 74
vector 507  csma802154net.dataCentricNetworkMan  RREQPacketFrequency  ETV
507	3874 38416 985 3526302 1.005 7273.03501 1335 0 153 4289 372697
vector 508  csma802154net.dataCentricNetworkMan  RERRPacketFrequency  ETV
508	42290 38346 985 3526302 1.005 7273.03501 1335 0 0 0 0
vector 509  csma802154net.dataCentricNetworkMan  DiscoveryPacketFrequency  ETV
509	80636 38346 985 3526302 1.005 7273.03501 1335 0 0 0 0
vector 510  csma802154net.dataCentricNetworkMan  RegisterPacketFrequency  ETV
510	118982 38346 985 3526302 1.005 7273.03501 1335 0 1 12 12
vector 511  csma802154net.dataCentricNetworkMan  RReplyPacketFrequency  ETV
511	157328 38366 985 3526302 1.005 7273.03501 1335 0 141 2073 117333
vector 512  csma802154net.dataCentricNetworkMan  AODVDataPacketFrequency  ETV
512	195694 38368 985 3526302 1.005 7273.03501 1335 0 141 1469 93743
vector 519  csma802154net.dataCentricNetworkMan  pendingRegistrationVector  ETV
519	241436 351 73271 1387128 43.5 54.5 16 1 8 80 472
vector 518  csma802154net.dataCentricNetworkMan  pendingRREQVector  ETV
518	240164 1272 73276 1414467 43.50001 54.587670758366 45 0 1 18 18
vector 516  csma802154net.dataCentricNetworkMan  PendingDataPacketsVector  ETV
516	234062 6102 1534874 3526014 70 7273.029916095253 208 0 2 130 156
vector 547  csma802154net.fixhost[27].udpApp  "End-to-end delay"  ETV
547	243544 595 1536469 3514756 70.013436026595 7270.013116026597 13 0.011836026597 0.014076026597 0.169228345755 0.002208344569768
vector 504  csma802154net.dataCentricNetworkMan  dataPacketE2EDelay  ETV
504	1522 2352 1536469 3526014 70.013436026595 7273.029916095253 52 0.011836026597 0.095196095253 1.428891880222 0.04817215771524
vector 533  csma802154net.fixhost[13].udpApp  "End-to-end delay"  ETV
533	242963 581 1542363 3520692 72.025156094309 7272.025796094308 13 0.02259609431 0.051892094309 0.381565226021 0.011842258546173
vector 530  csma802154net.fixhost[10].udpApp  "End-to-end delay"  ETV
530	242382 581 1543003 3521332 72.027396082319 7272.027964082318 13 0.02195608232 0.042292082318 0.385189070151 0.011786716168864
vector 525  csma802154net.fixhost[5].udpApp  "End-to-end delay"  ETV
525	241787 595 1547687 3526014 73.095196095253 7273.029916095253 13 0.028956095253 0.095196095253 0.492909238295 0.022334838430435
