version 2
run AODVScenario_1-0-20121001-15:11:22-3788
attr configname AODVScenario_1
attr datetime 20121001-15:11:22
attr experiment AODVScenario_1
attr inifile omnetpp.ini
attr iterationvars ""
attr iterationvars2 $repetition=0
attr measurement ""
attr network csma802154net
attr processid 3788
attr repetition 0
attr replication #0
attr resultdir results
attr runnumber 0
attr seedset 0

vector 386  csma802154net.dataCentricNetworkMan  RREQPacketFrequency  ETV
vector 387  csma802154net.dataCentricNetworkMan  DiscoveryPacketFrequency  ETV
vector 388  csma802154net.dataCentricNetworkMan  RegisterPacketFrequency  ETV
vector 389  csma802154net.dataCentricNetworkMan  RReplyPacketFrequency  ETV
vector 390  csma802154net.dataCentricNetworkMan  AODVDataPacketFrequency  ETV
386	1135	2.005	1
386	1276	2.01	0
386	3070	2.038586446663	235
386	3870	2.043586446663	0
386	6155	2.064975016504	17
386	6366	2.069975016504	0
386	7797	2.090285245596	27
386	7864	2.095285245596	0
386	9330	2.115248384451	68
386	9387	2.120248384451	0
386	10554	2.140683273595	55
386	10733	2.145683273595	0
386	12024	2.165768548394	47
386	12239	2.170768548394	7
386	12287	2.175768548394	0
386	13445	2.190102885036	29
386	13505	2.195102885036	0
386	14567	2.216159090465	58
386	15160	2.221159090465	0
386	16192	2.243551064007	45
386	16516	2.248551064007	0
386	17620	2.272692164704	79
386	17660	2.277692164704	0
386	18835	2.298567426971	59
386	18860	2.303567426971	0
386	19901	2.323240600948	34
386	19925	2.328240600948	0
386	20908	2.349151036858	62
386	20928	2.354151036858	0
386	21826	2.376965023139	40
386	21971	2.381965023139	0
386	22166	2.392487267306	6
386	22595	2.397487267306	45
386	22735	2.402487267306	0
386	23041	2.409649820942	7
386	23042	2.414649820942	0
386	23482	2.430342820586	53
386	23937	2.435342820586	38
386	23938	2.440342820586	0
386	24732	2.480539838677	37
386	24738	2.485539838677	0
386	25294	2.496063427054	55
386	25295	2.501063427054	0
386	25872	2.521197881579	0
386	26010	2.526197881579	0
386	26589	2.544175902458	0
386	26599	2.549175902458	0
386	27571	3.005	1
386	27700	3.01	0
386	29111	3.033647169816	186
386	29755	3.038647169816	0
386	31871	3.059847531121	82
386	32092	3.064847531121	0
386	33675	3.084096049078	58
386	33833	3.089096049078	0
386	35393	3.109394475294	61
386	35449	3.114394475294	0
386	36762	3.134051956404	36
386	36836	3.139051956404	0
386	38130	3.159888535542	69
386	38190	3.164888535542	0
386	39472	3.184528712289	53
386	39533	3.189528712289	0
386	40974	3.209138739443	57
386	41020	3.214138739443	0
386	42217	3.233935933208	32
386	42240	3.238935933208	0
386	43494	3.258765148347	73
386	43543	3.263765148347	0
386	44725	3.283019014356	33
386	44769	3.288019014356	0
386	45824	3.307975482043	5
386	45853	3.312975482043	0
386	47058	3.332353675142	46
386	47088	3.337353675142	0
386	48277	3.358709736788	42
386	48299	3.363709736788	0
386	49115	3.385512076565	28
386	49518	3.390512076565	0
386	50507	3.415595459848	39
386	50515	3.420595459848	0
386	51227	3.443890353909	88
386	51236	3.448890353909	0
386	52008	3.469495226576	0
386	52152	3.474495226576	0
386	52774	3.492463236857	23
386	52775	3.497463236857	0
386	53343	3.51660673173	0
386	53481	3.52160673173	0
386	54806	3.562857257736	0
386	54944	3.567857257736	0
386	56431	4.005	1
386	56438	4.01	0
386	57951	4.040967419817	171
386	58526	4.045967419817	0
386	60595	4.067285429936	74
386	60896	4.072285429936	0
386	62754	4.091574908184	53
386	62899	4.096574908184	0
386	64367	4.116116205456	24
386	64433	4.121116205456	0
386	65892	4.142369569625	72
386	65955	4.147369569625	0
386	67023	4.167173975499	19
386	67317	4.172173975499	0
386	68506	4.192298763604	51
386	68809	4.197298763604	0
386	69714	4.217231091167	48
386	70075	4.222231091167	10
386	70133	4.227231091167	0
386	71345	4.244886463073	72
386	71514	4.249886463073	0
386	72263	4.269377050118	8
386	72625	4.274377050118	30
386	72798	4.279377050118	0
386	73358	4.295278624622	31
386	73696	4.300278624622	33
386	73871	4.305278624622	0
386	74253	4.32208740886	17
386	75020	4.32708740886	63
386	75044	4.33208740886	0
386	76034	4.35489955746	86
386	76067	4.35989955746	0
386	77162	4.379373611089	124
386	77169	4.384373611089	0
386	78143	4.405968236209	71
386	78161	4.410968236209	0
386	78970	4.430276332354	68
386	78975	4.435276332354	0
386	79612	4.454856034426	33
386	79616	4.459856034426	0
386	79851	4.47213503438	17
386	80208	4.47713503438	18
386	80343	4.48213503438	0
386	80925	4.501417007312	0
386	81282	4.506417007312	17
386	81287	4.511417007312	0
386	81869	4.524705018433	0
386	81873	4.529705018433	0
386	82590	4.587394420592	0
386	82728	4.592394420592	0
386	83283	4.611467034851	0
386	83287	4.616467034851	0
386	84474	6.005	1
386	84484	6.01	0
386	85652	6.040412550383	135
386	86135	6.045412550383	0
386	87737	6.06727733494	44
386	87912	6.07227733494	0
386	89713	6.091641371265	32
386	89810	6.096641371265	0
386	91307	6.116275059063	4
386	91351	6.121275059063	0
386	92720	6.141383727853	98
386	92826	6.146383727853	0
386	94134	6.166395730023	39
386	94229	6.171395730023	0
386	95536	6.191277625457	20
386	95559	6.196277625457	0
386	96878	6.216884354766	21
386	96915	6.221884354766	0
386	98272	6.241675808364	74
386	98343	6.246675808364	0
386	99795	6.26953882472	56
386	99893	6.27453882472	0
386	101068	6.294637355328	17
386	101234	6.299637355328	0
386	102265	6.31981255933	68
386	102462	6.32481255933	6
386	102528	6.32981255933	0
386	103665	6.34512463877	57
386	103709	6.35012463877	0
386	104197	6.363736200216	7
386	104697	6.368736200216	30
386	104731	6.373736200216	0
386	105746	6.402780350755	27
386	106032	6.407780350755	0
386	106382	6.41476390647	36
386	106532	6.41976390647	0
386	107118	6.432224057089	20
386	107157	6.437224057089	0
386	107532	6.44559379323	41
386	107672	6.45059379323	0
386	108051	6.459995934882	42
386	108197	6.464995934882	0
386	108868	6.473999235002	0
386	109022	6.478999235002	0
386	109349	6.492038462862	23
386	109486	6.497038462862	0
386	110404	6.534433746588	54
386	110413	6.539433746588	0
386	111209	6.560235464499	102
386	111214	6.565235464499	0
386	111926	6.58609606416	111
386	112061	6.59109606416	0
386	112616	6.618214434015	83
386	112751	6.623214434015	0
386	113351	6.649948577069	0
386	113489	6.654948577069	0
386	114077	6.673236599878	0
386	114081	6.678236599878	0
386	114826	6.721143254295	0
386	114964	6.726143254295	0
386	115543	6.743254620757	0
386	115681	6.748254620757	0
386	116261	6.772671270302	0
386	116265	6.777671270302	0
386	117182	7.005	1
386	117189	7.01	0
386	118501	7.042174772568	143
386	118977	7.047174772568	0
386	120965	7.068709256877	88
386	121219	7.073709256877	0
386	122758	7.093921833538	6
386	122856	7.098921833538	0
386	124110	7.117885108012	30
386	124164	7.122885108012	0
386	125506	7.14514856355	91
386	125681	7.15014856355	0
386	125944	7.156118133705	1
386	126010	7.161118133705	0
386	127196	7.169716059229	51
386	127301	7.174716059229	0
386	128674	7.194457856705	21
386	128744	7.199457856705	0
386	130072	7.219430173039	61
386	130123	7.224430173039	0
386	131319	7.245297710905	48
386	131356	7.250297710905	0
386	132374	7.2700999332	52
386	132595	7.2750999332	14
386	132806	7.2800999332	0
386	133366	7.296525445969	52
386	133784	7.301525445969	20
386	133968	7.306525445969	0
386	134542	7.325374402341	23
386	135042	7.330374402341	15
386	135253	7.335374402341	9
386	135544	7.340374402341	0
386	136213	7.35836965515	26
386	136571	7.36336965515	8
386	136842	7.36836965515	0
386	137414	7.386332795208	34
386	137942	7.391332795208	17
386	137961	7.396332795208	0
386	138862	7.417757272405	47
386	138875	7.422757272405	0
386	139776	7.440142390547	84
386	139919	7.445142390547	0
386	140667	7.469407217458	48
386	140935	7.474407217458	0
386	141448	7.494352841676	35
386	141851	7.499352841676	24
386	141989	7.504352841676	0
386	142518	7.521962433309	16
386	142760	7.526962433309	15
386	143188	7.531962433309	0
386	143778	7.557697891409	55
386	143782	7.562697891409	0
386	144307	7.570957971029	0
386	144442	7.575957971029	0
386	145028	7.598843872225	0
386	145032	7.603843872225	0
386	145883	7.641001666444	0
386	146154	7.646001666444	0
386	147248	7.701891891092	0
386	147389	7.706891891092	0
386	147928	7.732407541522	0
386	147932	7.737407541522	0
386	148653	7.820015555633	0
386	148657	7.825015555633	0
386	149398	7.879783574927	0
386	149402	7.884783574927	0
386	150091	7.940841591344	0
386	150095	7.945841591344	0
386	151023	8.005	1
386	151158	8.01	0
386	152875	8.035635930533	167
386	153414	8.040635930533	0
386	155847	8.062065429928	32
386	156044	8.067065429928	0
386	157792	8.087089091694	23
386	158048	8.092089091694	0
386	159050	8.111877855243	8
386	159350	8.116877855243	36
386	159587	8.121877855243	0
386	160505	8.136701971015	23
386	160598	8.141701971015	0
386	161178	8.146994761694	28
386	161260	8.151994761694	0
386	161703	8.159838462701	0
386	161732	8.164838462701	0
386	162565	8.171328274218	18
386	162828	8.176328274218	0
386	163521	8.184145874131	28
386	163577	8.189145874131	0
386	164147	8.198166290356	14
386	164205	8.203166290356	0
386	164859	8.209445942122	1
386	164900	8.214445942122	0
386	165290	8.223598856094	35
386	165620	8.228598856094	0
386	166148	8.234059118824	4
386	166217	8.239059118824	0
386	166925	8.254263782262	28
386	167777	8.259263782262	54
386	167837	8.264263782262	0
386	168780	8.280243639795	39
386	169197	8.285243639795	0
386	170237	8.30827764553	15
386	170484	8.31327764553	0
386	171512	8.334174101264	32
386	171876	8.339174101264	0
386	172758	8.359472597919	39
386	172911	8.364472597919	0
386	173517	8.384241129888	14
386	173875	8.389241129888	12
386	174083	8.394241129888	0
386	174755	8.40985204437	44
386	174762	8.41485204437	0
386	175097	8.422616351507	0
386	175101	8.427616351507	0
386	175720	8.434462070791	21
386	175858	8.439462070791	0
386	176225	8.444954892654	17
386	176232	8.449954892654	0
386	177176	8.471344942444	19
386	177181	8.476344942444	0
386	178236	8.509630625808	0
386	178246	8.514630625808	0
386	178631	8.534352247109	20
386	178984	8.539352247109	0
386	179948	8.575059656083	0
386	180083	8.580059656083	0
386	180646	8.596462762777	0
386	180792	8.601462762777	0
386	182331	8.682867688251	0
386	182474	8.687867688251	0
386	183815	8.761163704669	0
386	183958	8.766163704669	0
386	185242	8.815782118917	0
386	185246	8.820782118917	0
386	186686	8.887718484884	0
386	186690	8.892718484884	0
386	187367	10.005	1
386	187502	10.01	0
386	188910	10.036689501122	158
386	189399	10.041689501122	0
386	191648	10.06276104221	81
386	191963	10.06776104221	0
386	192148	10.07276104221	0
386	193867	10.087550606661	5
386	193959	10.092550606661	0
386	195611	10.112133944749	7
386	195649	10.117133944749	0
386	196932	10.136597694942	17
386	196945	10.141597694942	0
386	198170	10.162923892811	88
386	198414	10.167923892811	0
386	198482	10.172923892811	0
386	199373	10.187011688163	29
386	199659	10.192011688163	15
386	199703	10.197011688163	0
386	200944	10.21262747907	50
386	201016	10.21762747907	0
386	202203	10.234407552074	31
386	202521	10.239407552074	0
386	203781	10.262061008641	30
386	203946	10.267061008641	0
386	204669	10.286489932142	23
386	205132	10.291489932142	31
386	205186	10.296489932142	0
386	205953	10.310464289164	0
386	206381	10.315464289164	28
386	206425	10.320464289164	0
386	207314	10.342713379662	30
386	207578	10.347713379662	19
386	207731	10.352713379662	0
386	208286	10.366885344249	20
386	208301	10.371885344249	0
386	208890	10.377359291002	55
386	208908	10.382359291002	0
386	210089	10.402749501084	46
386	210098	10.407749501084	0
386	210523	10.421876153498	14
386	211212	10.426876153498	52
386	211218	10.431876153498	0
386	212092	10.473857609613	0
386	212232	10.478857609613	0
386	212745	10.486288848205	0
386	212890	10.491288848205	0
386	213177	10.503093634182	21
386	213183	10.508093634182	0
386	214031	10.516002395757	0
386	214185	10.521002395757	0
386	214755	10.543992671797	0
386	215396	10.548992671797	0
386	216158	10.576632298625	0
386	216162	10.581632298625	0
386	217049	10.61504032172	0
386	217061	10.62004032172	0
386	217550	10.641694213989	40
386	217554	10.646694213989	0
386	218245	10.665648288824	0
386	218253	10.670648288824	0
386	220592	10.779016367909	0
386	220596	10.784016367909	0
386	221105	10.809692422927	0
386	221110	10.814692422927	0
386	222293	10.871881616603	0
386	222297	10.876881616603	0
386	223666	10.92770562935	0
386	223804	10.93270562935	0
386	224756	11.005	1
386	224757	11.01	0
386	226122	11.033139374679	183
386	226738	11.038139374679	0
386	228966	11.059553641426	48
386	229143	11.064553641426	0
386	231080	11.084405687432	28
386	231176	11.089405687432	0
386	232790	11.10949712809	41
386	232893	11.11449712809	0
386	233939	11.13279554429	4
386	234342	11.13779554429	0
386	235369	11.159906798439	29
386	235431	11.164906798439	0
386	235950	11.172019773029	17
386	236004	11.177019773029	0
386	236680	11.185621370836	33
386	236895	11.190621370836	0
386	237674	11.21304227956	33
386	238222	11.21804227956	41
386	238547	11.22304227956	0
386	239239	11.24051000801	39
386	239408	11.24551000801	0
386	240188	11.250728714515	8
386	240235	11.255728714515	0
386	240655	11.26957412303	23
386	241349	11.27457412303	22
386	241658	11.27957412303	0
386	242893	11.302329509916	66
386	243055	11.307329509916	0
386	244025	11.329426908045	45
386	244308	11.334426908045	0
386	244649	11.352508338143	0
386	245308	11.357508338143	21
386	245762	11.362508338143	0
386	247613	11.413417804743	31
386	247762	11.418417804743	0
386	248292	11.443941540815	26
386	248594	11.448941540815	0
386	249425	11.474515744472	0
386	249963	11.479515744472	0
386	250816	11.505425315686	34
386	251071	11.510425315686	0
386	253202	11.584513826226	0
386	253340	11.589513826226	0
386	254095	11.614921839765	0
386	254231	11.619921839765	0
386	255051	11.637249855942	0
386	255193	11.642249855942	0
386	255883	11.661177866694	0
386	255911	11.666177866694	0
386	256820	11.722301077327	0
386	256959	11.727301077327	0
386	257959	11.766465886386	0
386	257975	11.771465886386	0
386	258526	11.77688511342	0
386	258661	11.78188511342	0
386	259188	11.804678304957	0
386	259192	11.809678304957	0
386	259945	11.851916874618	0
386	260080	11.856916874618	0
386	260640	11.873211922496	0
386	260644	11.878211922496	0
386	261320	11.960489932058	0
386	261325	11.965489932058	0
386	261723	12.005	1
386	261724	12.01	0
386	263239	12.032816090708	157
386	263898	12.037816090708	0
386	266089	12.05909887929	43
386	266296	12.06409887929	0
386	268189	12.08388293607	29
386	268332	12.08888293607	0
386	269883	12.109006335297	2
386	269965	12.114006335297	0
386	271066	12.134747657904	9
386	271154	12.139747657904	0
386	272157	12.160169174222	20
386	272223	12.165169174222	0
386	273360	12.183129151898	46
386	273436	12.188129151898	0
386	276227	12.230254827522	20
386	276457	12.235254827522	0
386	277466	12.256133166988	22
386	277719	12.261133166988	0
386	278840	12.280815272416	42
386	278872	12.285815272416	0
386	280203	12.305607790086	71
386	280328	12.310607790086	0
386	281763	12.330184142738	42
386	281807	12.335184142738	0
386	283269	12.356889594842	9
386	283308	12.361889594842	0
386	284375	12.382074499896	22
386	284401	12.387074499896	0
386	285409	12.407203008255	104
386	285424	12.412203008255	0
386	286807	12.447928689585	0
386	287521	12.452928689585	33
386	287533	12.457928689585	0
386	289327	12.502674201225	34
386	289631	12.507674201225	0
386	290410	12.531408931516	0
386	290559	12.536408931516	0
386	291107	12.562152273386	0
386	291112	12.567152273386	0
386	292620	12.605885848629	37
386	292646	12.610885848629	0
386	294727	12.676553548746	58
386	294865	12.681553548746	0
386	295637	12.706812579369	0
386	295783	12.711812579369	0
386	297581	12.784804738765	35
386	297587	12.789804738765	0
386	299121	12.835847978127	0
386	299642	12.840847978127	0
386	300364	12.866408959488	0
386	300507	12.871408959488	0
386	301342	12.896774384045	0
386	301350	12.901774384045	0
386	303826	12.985768965654	0
386	303964	12.990768965654	0
386	305071	13.016412721037	0
386	305079	13.021412721037	0
386	307046	13.094576977794	0
386	307358	13.099576977794	0
386	310313	13.226148325854	1
386	310333	13.231148325854	0
386	311771	13.261266239828	80
386	312024	13.266266239828	0
386	313366	13.287633191393	20
386	313627	13.292633191393	0
386	314261	13.301336651359	19
386	314299	13.306336651359	0
386	314709	13.31364545516	15
386	314742	13.31864545516	0
386	315386	13.32562690035	35
386	315514	13.33062690035	0
386	316214	13.339409317326	29
386	316278	13.344409317326	0
386	316818	13.352265406804	33
386	317137	13.357265406804	0
386	318064	13.378325560137	44
386	318096	13.383325560137	0
386	318611	13.388572415836	17
386	318626	13.393572415836	0
386	319204	13.40628193114	44
386	319660	13.41128193114	28
386	319693	13.41628193114	0
386	320240	13.432287514	32
386	320663	13.437287514	22
386	321123	13.442287514	0
386	322346	13.463479932055	28
386	322357	13.468479932055	0
386	323503	13.4907849049	25
386	323523	13.4957849049	0
386	324474	13.515488185776	52
386	324484	13.520488185776	0
386	325512	13.540737939058	29
386	325668	13.545737939058	0
386	326414	13.567498433462	49
386	326559	13.572498433462	0
386	327329	13.592585023979	55
386	327355	13.597585023979	0
386	327916	13.619399020565	48
386	328259	13.624399020565	38
386	328391	13.629399020565	0
386	329188	13.654027009289	112
386	329338	13.659027009289	0
386	330018	13.68268134252	104
386	330156	13.68768134252	0
386	330731	13.712153953832	0
386	330746	13.717153953832	0
386	333671	13.75984196596	83
386	333989	13.76484196596	0
386	343339	13.923052760671	0
386	343726	13.928052760671	0
386	344905	13.953586126904	0
386	345094	13.958586126904	0
386	346509	13.993080304208	0
386	346573	13.998080304208	0
386	347552	14.005	1
386	347940	14.01	0
386	349105	14.045462152087	0
386	349692	14.050462152087	0
386	350629	14.055462152087	0
386	355452	14.148889962404	0
386	355725	14.153889962404	0
386	356501	14.171968212962	0
386	356801	14.176968212962	0
386	357568	14.195000817265	0
386	357774	14.200000817265	0
386	359197	14.229453460685	0
386	359263	14.234453460685	0
386	360177	14.252108705447	0
386	360610	14.257108705447	0
386	363082	14.324355804863	0
386	363445	14.329355804863	0
386	369451	14.447422779919	0
386	369491	14.452422779919	0
386	370242	14.470748921417	0
386	370665	14.475748921417	0
386	372666	14.523653579408	0
386	372962	14.528653579408	0
386	374404	14.57853971613	0
386	374808	14.58353971613	0
386	377464	14.670825805125	0
386	377743	14.675825805125	0
386	379736	14.748536558242	0
386	379893	14.753536558242	0
386	387101	15.005	1
386	387470	15.01	0
386	389307	15.040378844944	83
386	389565	15.045378844944	0
386	391319	15.066585170995	17
386	391416	15.071585170995	0
386	392684	15.091430653266	20
386	392920	15.096430653266	0
386	393916	15.116404542349	14
386	394302	15.121404542349	13
386	394351	15.126404542349	0
386	394390	15.131404542349	0
386	395341	15.142007055495	31
386	395400	15.147007055495	0
386	396503	15.169057250216	36
386	396853	15.174057250216	0
386	397087	15.179057250216	0
386	397272	15.184057250216	0
386	398101	15.193658088945	50
386	398229	15.198658088945	0
386	399409	15.218674686659	16
386	399466	15.223674686659	0
386	399986	15.235847559366	21
386	401023	15.240847559366	23
386	401106	15.245847559366	0
386	401157	15.250847559366	0
386	402517	15.268298768897	2
386	402562	15.273298768897	0
386	403921	15.293740145075	67
386	403980	15.298740145075	0
386	405031	15.318358893653	50
386	405344	15.323358893653	0
386	406616	15.345277532185	5
386	406860	15.350277532185	0
386	407805	15.371477456257	18
386	407843	15.376477456257	0
386	408820	15.397273141299	18
386	408850	15.402273141299	0
386	409809	15.415521743923	23
386	410127	15.420521743923	0
386	411020	15.442930336161	68
386	411131	15.447930336161	0
386	411502	15.452930336161	0
386	412055	15.467572168849	48
386	412435	15.472572168849	0
386	414537	15.499942473123	3
386	414567	15.504942473123	0
386	417109	15.574659486936	55
386	417122	15.579659486936	0
386	417759	15.597953222245	0
386	417915	15.602953222245	0
386	418879	15.626394767909	0
386	419035	15.631394767909	0
386	420137	15.656037366516	106
386	420194	15.661037366516	0
386	421282	15.678666783352	31
386	421666	15.683666783352	0
386	423239	15.73035023855	44
386	423261	15.73535023855	0
386	424498	15.754945311871	0
386	424656	15.759945311871	0
386	426081	15.808817329712	0
386	426232	15.813817329712	0
386	426998	15.837942169203	0
386	427141	15.842942169203	0
386	427900	15.871128475142	27
386	427912	15.876128475142	0
386	429158	15.915501533069	0
386	429488	15.920501533069	0
386	430354	15.947641230776	0
386	430628	15.952641230776	0
386	432108	16.001680949613	2
386	432245	16.006680949613	0
386	433037	16.026148325854	1
386	433260	16.031148325854	0
386	433350	16.04571643079	0
386	433931	16.05071643079	0
386	435427	16.102884346162	0
386	435566	16.107884346162	0
386	436233	16.131253006521	0
386	436246	16.136253006521	0
386	437609	16.177146975473	0
386	437802	16.182146975473	0
386	439911	16.258056118085	0
386	439915	16.263056118085	0
386	440733	16.302437548896	0
386	441184	16.307437548896	0
386	442039	16.334061216906	50
386	442186	16.339061216906	0
386	443481	16.361028835118	62
386	443685	16.366028835118	0
386	444962	16.387083980227	39
386	445073	16.392083980227	0
386	446457	16.411597763973	76
386	446499	16.416597763973	0
386	447773	16.436099129207	33
386	447794	16.441099129207	0
386	448646	16.462971889549	24
386	448714	16.467971889549	0
386	450150	16.48800168036	122
386	450225	16.49300168036	0
386	451410	16.514217977288	31
386	451447	16.519217977288	0
386	452556	16.539139607409	75
386	452589	16.544139607409	0
386	453406	16.564263509253	20
386	453646	16.569263509253	16
386	453803	16.574263509253	0
386	454485	16.589891806587	45
386	454994	16.594891806587	43
386	455010	16.599891806587	0
386	455919	16.61806983415	37
386	456153	16.62306983415	28
386	456489	16.62806983415	8
386	456730	16.63306983415	0
386	457013	16.643140346451	14
386	457224	16.648140346451	7
386	458051	16.653140346451	23
386	458073	16.658140346451	0
386	458989	16.677861189519	54
386	459500	16.682861189519	0
386	460570	16.711160227856	54
386	460584	16.716160227856	0
386	460743	16.729760671327	0
386	461320	16.734760671327	54
386	461323	16.739760671327	0
386	461750	16.748388758755	32
386	461977	16.753388758755	0
386	462742	16.776975334874	22
386	462747	16.781975334874	0
386	463126	16.801762728945	17
386	463131	16.806762728945	0
386	464916	16.840155334076	63
386	465100	16.845155334076	0
386	466647	16.867337680456	2
386	466691	16.872337680456	0
386	467494	16.891631557442	26
386	467595	16.896631557442	0
386	467643	16.901631557442	0
386	468652	16.917171566949	5
386	468671	16.922171566949	0
386	469821	16.9420473358	13
386	470070	16.9470473358	0
386	470946	16.967625037535	26
386	470952	16.972625037535	0
386	471201	16.980476137193	0
386	471219	16.985476137193	0
386	472337	16.994704872215	39
386	472516	16.999704872215	0
386	473938	17.019956911946	13
386	474200	17.024956911946	0
386	474832	17.045910931689	6
386	475527	17.050910931689	65
386	475885	17.055910931689	0
386	476025	17.060910931689	0
386	477581	17.078442642031	38
386	477675	17.083442642031	0
386	477772	17.088442642031	0
386	478916	17.103100164903	1
386	478952	17.108100164903	0
386	480060	17.12739323641	42
386	480238	17.13239323641	0
386	480285	17.13739323641	0
386	480769	17.152105658163	20
386	481435	17.157105658163	35
386	481491	17.162105658163	0
386	482396	17.178243288914	25
386	482727	17.183243288914	0
386	483400	17.196275497526	5
386	483442	17.201275497526	0
386	484320	17.218983067082	16
386	484739	17.223983067082	0
386	485051	17.233900909383	19
386	485070	17.238900909383	0
386	486010	17.248697099852	8
386	486046	17.253697099852	0
386	487372	17.273450430825	35
386	487435	17.278450430825	0
386	488789	17.298084124049	9
386	488833	17.303084124049	0
386	489860	17.322762177074	24
386	490049	17.327762177074	0
386	491104	17.347643963477	67
386	491136	17.352643963477	0
386	492396	17.389476454404	14
386	492453	17.394476454404	0
386	494233	17.430034899186	37
386	494276	17.435034899186	0
386	495479	17.457876391452	85
386	495549	17.462876391452	0
386	497880	17.50392244588	9
386	498026	17.50892244588	0
386	500067	17.558779713661	0
386	500268	17.563779713661	0
386	501004	17.583779038229	3
386	501036	17.588779038229	0
386	503286	17.636498898059	0
386	503317	17.641498898059	0
386	503841	17.661179730764	8
386	503852	17.666179730764	0
386	504548	17.673555747725	0
386	504842	17.678555747725	0
386	505165	17.696275716011	16
386	505803	17.701275716011	0
386	506075	17.706275716011	0
386	506092	17.711275716011	0
386	507527	17.752488121861	61
386	507859	17.757488121861	0
386	508344	17.77691297055	26
386	508645	17.78191297055	24
386	509063	17.78691297055	0
386	509849	17.812205155976	26
386	509864	17.817205155976	0
386	510044	17.822889822676	0
386	510056	17.827889822676	0
386	510871	17.837076134647	0
386	510886	17.842076134647	0
386	511940	17.885972333897	0
386	512360	17.890972333897	0
386	512541	17.895972333897	0
386	513105	17.910733608014	0
386	513424	17.915733608014	0
386	514721	17.944381906474	0
386	514864	17.949381906474	0
386	515524	17.972611764782	0
386	515802	17.977611764782	0
386	517594	18.029106020195	0
386	517956	18.034106020195	0
386	518134	18.039106020195	0
386	518140	18.044106020195	0
386	518828	18.053955753975	0
386	519253	18.058955753975	0
386	519931	18.076283766966	0
386	519951	18.081283766966	0
386	521288	18.120820158116	7
386	521615	18.125820158116	0
386	522001	18.130820158116	0
386	522726	18.158268676448	0
386	522871	18.163268676448	0
386	523522	18.188178035477	0
386	523657	18.193178035477	0
386	524361	18.216300688281	0
386	524380	18.221300688281	0
386	524966	18.240685667857	31
386	524975	18.245685667857	0
386	526356	18.299942473123	1
386	526719	18.304942473123	0
386	527852	18.334891512436	30
386	527951	18.339891512436	0
386	528900	18.357844699777	0
386	529062	18.362844699777	0
386	529501	18.383349120075	21
386	529769	18.388349120075	0
386	530384	18.408572592243	28
386	530425	18.413572592243	0
386	531059	18.429085659732	1
386	531482	18.434085659732	24
386	531637	18.439085659732	0
386	533148	18.466533662082	37
386	533221	18.471533662082	0
386	534351	18.492896277004	56
386	534544	18.497896277004	0
386	535356	18.519314694418	14
386	535417	18.524314694418	0
386	536676	18.543890079063	108
386	536959	18.548890079063	0
386	538001	18.564378277299	44
386	538366	18.569378277299	0
386	539818	18.592038119274	54
386	539930	18.597038119274	0
386	543128	18.644261766302	21
386	543188	18.649261766302	0
386	544282	18.669453482587	41
386	544347	18.674453482587	0
386	545749	18.693737019695	93
386	546010	18.698737019695	0
386	547129	18.717940629937	17
386	547305	18.722940629937	0
386	548613	18.750968763518	16
386	548648	18.755968763518	0
386	549971	18.77666669214	22
386	550013	18.78166669214	0
386	550917	18.801422146893	2
386	550973	18.806422146893	0
386	551903	18.813802606837	53
386	551985	18.818802606837	0
386	552237	18.823802606837	14
386	552268	18.828802606837	0
386	553471	18.840226259167	20
386	553538	18.845226259167	0
386	555065	18.864608410559	24
386	555111	18.869608410559	0
386	556263	18.891971236064	26
386	556470	18.896971236064	7
386	556513	18.901971236064	0
386	557234	18.917356652183	1
386	557287	18.922356652183	0
386	558879	18.965577824462	0
386	559284	18.970577824462	0
386	563485	19.072059115757	29
386	563514	19.077059115757	0
386	565482	19.117324427691	53
386	565525	19.122324427691	0
386	568804	19.21246081763	0
386	568835	19.21746081763	0
386	569552	19.235304041138	0
386	569702	19.240304041138	0
386	572462	19.324276735938	46
386	572793	19.329276735938	0
386	574965	19.423803508108	0
386	575113	19.428803508108	0
386	576603	19.476412708967	0
386	576616	19.481412708967	0
386	577679	19.52301443092	0
386	577840	19.52801443092	0
386	578722	19.552084819496	0
386	578869	19.557084819496	0
386	579481	19.575018066195	0
386	579835	19.580018066195	0
386	580045	19.585018066195	0
386	580062	19.590018066195	0
386	581766	19.649292173131	0
386	581908	19.654292173131	0
386	582405	19.662180849575	0
386	582419	19.667180849575	0
386	585045	19.76170886404	0
386	585570	19.76670886404	0
386	587086	19.825284744144	0
386	587602	19.830284744144	0
386	588113	19.855388716479	0
386	588457	19.860388716479	0
386	589229	19.884129984974	0
386	589237	19.889129984974	0
386	591188	19.970451908554	0
386	591324	19.975451908554	0
386	591872	19.992854428105	0
386	592141	19.997854428105	0
386	592681	20.00501	1
386	592691	20.01001	0
386	593630	20.041493195206	0
386	594344	20.046493195206	182
386	595893	20.051493195206	0
386	596483	20.056493195206	0
386	599474	20.077154934453	35
386	599693	20.082154934453	0
386	602040	20.101404577928	9
386	602162	20.106404577928	0
386	603944	20.126190419083	1
386	603971	20.131190419083	0
386	605244	20.149707078564	0
386	605912	20.154707078564	0
386	606415	20.173689785834	15
386	607448	20.178689785834	30
386	607617	20.183689785834	0
386	608989	20.208487557342	22
386	609201	20.213487557342	0
386	610080	20.229819634824	27
386	610124	20.234819634824	0
386	610571	20.241252487019	18
386	610638	20.246252487019	0
386	611054	20.252895845646	0
386	611096	20.257895845646	0
386	612203	20.277892918749	49
386	612271	20.282892918749	0
386	613004	20.292911803889	19
386	613376	20.297911803889	37
386	613576	20.302911803889	0
386	614411	20.316598408604	17
386	614474	20.321598408604	0
386	615793	20.344346392268	24
386	615963	20.349346392268	0
386	618051	20.400597532604	29
386	618092	20.405597532604	0
386	619268	20.418169120124	45
386	619308	20.423169120124	0
386	621626	20.467876311243	0
386	621782	20.472876311243	0
386	622581	20.497028989322	0
386	622905	20.502028989322	0
386	624971	20.536573622886	33
386	625011	20.541573622886	0
386	626246	20.582362598528	0
386	626751	20.587362598528	0
386	631955	20.724244921976	10
386	631976	20.729244921976	0
386	633995	20.771707862656	0
386	634280	20.776707862656	0
386	635060	20.799791449189	0
386	635306	20.804791449189	0
386	636032	20.835527202616	0
386	636473	20.840527202616	0
386	637764	20.887532117783	43
386	638196	20.892532117783	0
386	640938	20.973746937158	0
386	641079	20.978746937158	0
386	642475	21.00501	0
386	642505	21.01001	0
386	643696	21.043892007951	0
386	644106	21.048892007951	0
386	646719	21.140621084781	0
386	646725	21.145621084781	0
386	654747	21.447341100062	0
386	654882	21.452341100062	0