version 2
run AODVScenario_1f-42-20121121-14:53:20-7320
attr configname AODVScenario_1f
attr datetime 20121121-14:53:20
attr experiment AODVScenario_1f
attr inifile AODV.ini
attr iterationvars $numNodes=92
attr iterationvars2 "$numNodes=92, $repetition=0"
attr measurement $numNodes=92
attr network csma802154net
attr numNodes 92
attr processid 7320
attr repetition 0
attr replication #0
attr resultdir results
attr runnumber 42
attr seedset 42

vector 379  csma802154net.dataCentricNetworkMan  RREQPacketFrequency  ETV
vector 380  csma802154net.dataCentricNetworkMan  RERRPacketFrequency  ETV
vector 381  csma802154net.dataCentricNetworkMan  DiscoveryPacketFrequency  ETV
vector 382  csma802154net.dataCentricNetworkMan  RegisterPacketFrequency  ETV
vector 383  csma802154net.dataCentricNetworkMan  RReplyPacketFrequency  ETV
vector 384  csma802154net.dataCentricNetworkMan  AODVDataPacketFrequency  ETV
vector 391  csma802154net.dataCentricNetworkMan  pendingRegistrationVector  ETV
vector 390  csma802154net.dataCentricNetworkMan  pendingRREQVector  ETV
vector 388  csma802154net.dataCentricNetworkMan  PendingDataPacketsVector  ETV
vector 396  csma802154net.fixhost[4].udpApp  "End-to-end delay"  ETV
vector 376  csma802154net.dataCentricNetworkMan  dataPacketE2EDelay  ETV
vector 398  csma802154net.fixhost[6].udpApp  "End-to-end delay"  ETV
vector 413  csma802154net.fixhost[21].udpApp  "End-to-end delay"  ETV
vector 395  csma802154net.fixhost[3].udpApp  "End-to-end delay"  ETV
vector 397  csma802154net.fixhost[5].udpApp  "End-to-end delay"  ETV
vector 399  csma802154net.fixhost[7].udpApp  "End-to-end delay"  ETV
vector 405  csma802154net.fixhost[13].udpApp  "End-to-end delay"  ETV
vector 407  csma802154net.fixhost[15].udpApp  "End-to-end delay"  ETV
vector 406  csma802154net.fixhost[14].udpApp  "End-to-end delay"  ETV
vector 403  csma802154net.fixhost[11].udpApp  "End-to-end delay"  ETV
vector 404  csma802154net.fixhost[12].udpApp  "End-to-end delay"  ETV
376	783568	70.017276028832	0.017276028832
376	784008	70.022676043666	0.022676043666
376	784454	70.026476065978	0.026476065978
376	786716	71.020756053393	0.020756053393
376	788588	71.055804088157	0.055804088157
376	789579	71.099212112557	0.099212112557
376	791852	72.022036051627	0.022036051627
376	794273	72.065292124078	0.065292124078
376	794750	72.102844089794	0.102844089794
376	798265	73.025156091213	0.025156091213
376	799238	73.032084116919	0.032084116919
376	913224	670.016316028832	0.016316028832
376	913663	670.019796043667	0.019796043667
376	914110	670.02455606598	0.02455606598
376	916630	671.018444053393	0.018444053393
376	918571	671.032652112556	0.032652112556
376	919053	671.040620088157	0.040620088157
376	921142	672.019796051627	0.019796051627
376	922793	672.031484089795	0.031484089795
376	924229	672.059212124077	0.059212124077
376	927764	673.029276116919	0.029276116919
376	928703	673.035572091213	0.035572091213
376	1042705	1270.013116028831	0.013116028831
376	1043145	1270.017876043666	0.017876043666
376	1043592	1270.023276065979	0.023276065979
376	1045663	1271.015956053393	0.015956053393
376	1047256	1271.030916088157	0.030916088157
376	1049163	1271.053844112557	0.053844112557
376	1051246	1272.024276051627	0.024276051627
376	1052912	1272.037884089795	0.037884089795
376	1054348	1272.070412124078	0.070412124078
376	1057861	1273.025476091213	0.025476091213
376	1058832	1273.032724116919	0.032724116919
376	1172909	1870.012156028831	0.012156028831
376	1173349	1870.015636043666	0.015636043666
376	1173795	1870.019116065979	0.019116065979
376	1175866	1871.016916053393	0.016916053393
376	1177458	1871.027716088157	0.027716088157
376	1179365	1871.057044112556	0.057044112556
376	1182404	1872.023564051627	0.023564051627
376	1183115	1872.026436089795	0.026436089795
376	1184551	1872.058572124078	0.058572124078
376	1188063	1873.025796091213	0.025796091213
376	1189034	1873.032084116918	0.032084116918
376	1303019	2470.012796028831	0.012796028831
376	1303459	2470.016916043666	0.016916043666
376	1303906	2470.020396065979	0.020396065979
376	1307839	2471.029276112555	0.029276112555
376	1308787	2471.050300053393	0.050300053393
376	1309268	2471.055020088156	0.055020088156
376	1311815	2472.018836051627	0.018836051627
376	1313272	2472.034324119013	0.034324119013
376	1314249	2472.041644149998	0.041644149998
376	1317311	2473.025476091213	0.025476091213
376	1318734	2473.034964116919	0.034964116919
376	1432719	3070.014716028832	0.014716028832
376	1433159	3070.019476043667	0.019476043667
376	1433606	3070.02295606598	0.02295606598
376	1436122	3071.021076053393	0.021076053393
376	1438060	3071.039124112555	0.039124112555
376	1438541	3071.044460088156	0.044460088156
376	1441779	3072.026436089795	0.026436089795
376	1443680	3072.054804124078	0.054804124078
376	1444381	3072.087348051625	0.087348051625
376	1447662	3073.027396091213	0.027396091213
376	1449092	3073.056084116918	0.056084116918
376	1563169	3670.014076028831	0.014076028831
376	1563609	3670.019156043666	0.019156043666
376	1564056	3670.023276065979	0.023276065979
376	1566128	3671.017236053393	0.017236053393
376	1568495	3671.036284088157	0.036284088157
376	1568981	3671.038484112557	0.038484112557
376	1572215	3672.024196089795	0.024196089795
376	1573148	3672.043652051627	0.043652051627
376	1574606	3672.053524124078	0.053524124078
376	1577668	3673.027076091212	0.027076091212
376	1579092	3673.037844116918	0.037844116918
376	1693078	4270.015676028831	0.015676028831
376	1693517	4270.019156043665	0.019156043665
376	1693964	4270.023276065978	0.023276065978
376	1696036	4271.017876053393	0.017876053393
376	1697537	4271.029244088155	0.029244088155
376	1699087	4271.064012112554	0.064012112554
376	1701731	4272.022284051625	0.022284051625
376	1702825	4272.032124089795	0.032124089795
376	1704261	4272.055444124077	0.055444124077
376	1707323	4273.027716091211	0.027716091211
376	1708747	4273.038804116918	0.038804116918
376	1822732	4870.011836028831	0.011836028831
376	1823172	4870.016596043666	0.016596043666
376	1823619	4870.021676065979	0.021676065979
376	1825693	4871.014996053393	0.014996053393
376	1827096	4871.025404088157	0.025404088157
376	1828548	4871.036812112557	0.036812112557
376	1831097	4872.023884051627	0.023884051627
376	1832559	4872.044244119013	0.044244119013
376	1833536	4872.056364149998	0.056364149998
376	1836599	4873.024516091213	0.024516091213
376	1838019	4873.034644116919	0.034644116919
376	1952096	5470.011836028831	0.011836028831
376	1952536	5470.015636043666	0.015636043666
376	1952983	5470.020716065979	0.020716065979
376	1955055	5471.017236053393	0.017236053393
376	1957157	5471.036244112556	0.036244112556
376	1958120	5471.062060088155	0.062060088155
376	1960394	5472.018836051627	0.018836051627
376	1962052	5472.050684089794	0.050684089794
376	1963488	5472.078412124076	0.078412124076
376	1966996	5473.027396091213	0.027396091213
376	1967961	5473.032156116919	0.032156116919
376	2082422	6070.012476028832	0.012476028832
376	2082862	6070.016596043667	0.016596043667
376	2083309	6070.021036065979	0.021036065979
376	2086755	6071.026436088157	0.026436088157
376	2087748	6071.033684112557	0.033684112557
376	2088207	6071.040380053393	0.040380053393
376	2090289	6072.017236051626	0.017236051626
376	2092909	6072.052284089794	0.052284089794
376	2093881	6072.058252124075	0.058252124075
376	2097414	6073.033436116919	0.033436116919
376	2098356	6073.041332091213	0.041332091213
376	2212358	6670.012156028832	0.012156028832
376	2212798	6670.015956043667	0.015956043667
376	2213245	6670.02071606598	0.02071606598
376	2216765	6671.031516112556	0.031516112556
376	2217700	6671.036612053392	0.036612053392
376	2218182	6671.044460088156	0.044460088156
376	2220268	6672.022036051627	0.022036051627
376	2222187	6672.035644089794	0.035644089794
376	2223160	6672.041612124078	0.041612124078
376	2226412	6673.026436091213	0.026436091213
376	2227842	6673.055444116919	0.055444116919
376	2341920	7270.015036028832	0.015036028832
376	2342359	7270.019796043667	0.019796043667
376	2342806	7270.02487606598	0.02487606598
376	2345802	7271.027476053393	0.027476053393
376	2347248	7271.036604088157	0.036604088157
376	2347738	7271.040972112557	0.040972112557
376	2350990	7272.028036089794	0.028036089794
376	2351465	7272.031172051627	0.031172051627
376	2352929	7272.064012124077	0.064012124077
376	2356430	7273.025796091213	0.025796091213
376	2357406	7273.033044116919	0.033044116919
379	729	1.005	1
379	742	1.01	0
379	1350	1.017018358366	55
379	2040	1.022018358366	21
379	3411	1.027018358366	119
379	5390	1.032018358366	81
379	7572	1.037018358366	71
379	9510	1.042018358366	56
379	11939	1.047018358366	76
379	13469	1.052018358366	89
379	14932	1.057018358366	34
379	16427	1.062018358366	86
379	17700	1.067018358366	53
379	18570	1.072018358366	39
379	19272	1.077018358366	50
379	19841	1.082018358366	52
379	20177	1.087018358366	49
379	20781	1.092018358366	43
379	21245	1.097018358366	52
379	21956	1.102018358366	44
379	22878	1.107018358366	90
379	22882	1.112018358366	0
379	23432	1.120060881471	52
379	23779	1.125060881471	52
379	23780	1.130060881471	0
379	24445	1.16115092231	55
379	24858	1.16615092231	46
379	24859	1.17115092231	0
379	25297	1.194522832051	50
379	25298	1.199522832051	0
379	33297	43.505	1
379	33304	43.51	0
379	34380	43.51880772334	23
379	35407	43.52380772334	0
379	36554	43.52880772334	0
379	37301	43.53380772334	0
379	37810	43.53880772334	0
379	39015	43.546435527205	0
379	39734	43.551435527205	0
379	40357	43.556435527205	0
379	41180	43.561595502133	0
379	41845	43.566595502133	0
379	42720	43.571595502133	0
379	43623	43.576595502133	0
379	44492	43.581595502133	0
379	44913	43.586595502133	0
379	45475	43.591595502133	0
379	45893	43.596595502133	0
379	46906	43.604890201152	0
379	48074	43.609890201152	0
379	48724	43.614890201152	0
379	49495	43.619890201152	0
379	50038	43.624890201152	0
379	50448	43.629890201152	0
379	51571	43.638193013236	0
379	52518	43.643193013236	0
379	53512	43.649511763913	0
379	53751	43.654511763913	0
379	55766	43.670826261702	0
379	56553	43.675826261702	0
379	57305	43.680826261702	0
379	58246	43.685826261702	0
379	58669	43.690826261702	0
379	59613	43.695826261702	0
379	60150	43.700826261702	0
379	60689	43.705826261702	0
379	61586	43.712137040297	0
379	62042	43.717137040297	0
379	62842	43.722137040297	0
379	63606	43.727137040297	0
379	63824	43.732137040297	0
379	64273	43.738062059525	0
379	64846	43.743062059525	0
379	65586	43.748062059525	0
379	66234	43.75393172571	0
379	66574	43.75893172571	0
379	66575	43.76393172571	0
379	67016	43.781315756561	0
379	67020	43.786315756561	0
379	68321	43.876623790979	0
379	68322	43.881623790979	0
379	68514	44.505	1
379	68527	44.51	0
379	70267	44.517058006278	31
379	71635	44.522058006278	0
379	72589	44.527058006278	0
379	73872	44.532113736468	0
379	74667	44.537113736468	0
379	75647	44.542113736468	0
379	76244	44.547113736468	0
379	77113	44.552113736468	0
379	78009	44.557113736468	0
379	78926	44.562113736468	0
379	79828	44.567113736468	0
379	80977	44.572866510609	0
379	81810	44.577866510609	0
379	82610	44.582866510609	0
379	83180	44.587866510609	0
379	83590	44.592866510609	0
379	84468	44.597866510609	0
379	85452	44.602866510609	0
379	86230	44.607866510609	0
379	87085	44.612866510609	0
379	88496	44.621540333056	0
379	89309	44.626540333056	0
379	89556	44.631540333056	0
379	90506	44.636540333056	0
379	91213	44.641540333056	0
379	92214	44.646540333056	0
379	93240	44.651540333056	0
379	94449	44.660365151018	0
379	95318	44.665365151018	0
379	95898	44.670365151018	0
379	96456	44.675365151018	0
379	97361	44.680365151018	0
379	98260	44.685365151018	0
379	99047	44.690365151018	0
379	100135	44.695365151018	0
379	100782	44.700365151018	0
379	101563	44.710556466172	0
379	102147	44.715556466172	0
379	102832	44.720556466172	0
379	103484	44.725556466172	0
379	104240	44.730556466172	0
379	105439	44.749212507207	0
379	106196	44.754212507207	0
379	106672	44.759212507207	0
379	107237	44.764550675367	0
379	107668	44.769550675367	0
379	107671	44.774550675367	0
379	109903	44.804729736829	0
379	110669	44.809729736829	0
379	111449	44.814729736829	0
379	111902	44.819729736829	0
379	113509	44.836840026429	0
379	114167	44.841840026429	0
379	114637	44.846840026429	0
379	114638	44.851840026429	0
379	114836	45.505	1
379	115425	45.51	43
379	117586	45.515	0
379	119124	45.52	0
379	120308	45.526159366343	0
379	120763	45.531159366343	0
379	121378	45.536159366343	0
379	122461	45.541159366343	0
379	125355	45.553790655425	0
379	126075	45.558790655425	0
379	129824	45.578795435446	0
379	130900	45.583795435446	0
379	131565	45.588795435446	0
379	132712	45.594013368219	0
379	133618	45.599013368219	0
379	134413	45.604013368219	0
379	135749	45.609013368219	0
379	140130	45.63020559809	0
379	141005	45.63520559809	0
379	142624	45.64276394775	0
379	143852	45.64776394775	0
379	144528	45.65276394775	0
379	145721	45.65776394775	0
379	147504	45.666618046466	0
379	148108	45.671618046466	0
379	150209	45.685851990485	0
379	151142	45.690851990485	0
379	152137	45.695851990485	0
379	153163	45.700851990485	0
379	154110	45.705851990485	0
379	155353	45.710851990485	0
379	156048	45.715851990485	0
379	157255	45.720851990485	0
379	160075	45.735180008846	0
379	161152	45.740180008846	0
379	161754	45.745180008846	0
379	162437	45.750180008846	0
379	163491	45.755180008846	0
379	164158	45.760180008846	0
379	166827	45.774939033002	0
379	167703	45.779939033002	0
379	168695	45.785890983333	0
379	169684	45.790890983333	0
379	170744	45.799316184165	0
379	171578	45.804316184165	0
379	172382	45.809316184165	0
379	173133	45.814316184165	0
379	174957	45.827195556786	0
379	175771	45.832195556786	0
379	176345	45.837195556786	0
379	177517	45.843537417725	0
379	178429	45.848537417725	0
379	179110	45.853537417725	0
379	181304	45.865335034458	0
379	182030	45.870335034458	0
379	183159	45.875335034458	0
379	184492	45.883547450601	0
379	185452	45.888547450601	0
379	186007	45.89527904197	0
379	187020	45.90027904197	0
379	187669	45.90527904197	0
379	188875	45.91027904197	0
379	189539	45.91527904197	0
379	190455	45.92027904197	0
379	191137	45.92527904197	0
379	192081	45.930535582757	0
379	192784	45.935535582757	0
379	193716	45.941657390523	0
379	194419	45.946657390523	0
379	195082	45.951657390523	0
379	195545	45.956657390523	0
379	195926	45.961657390523	0
379	196499	45.966657390523	0
379	196976	45.971657390523	0
379	197663	45.976657390523	0
379	197794	45.981657390523	0
379	198461	46.01534768727	0
379	198462	46.02034768727	0
379	198469	46.505	1
379	198577	46.51	0
379	200129	46.51594355425	26
379	201239	46.52094355425	0
379	202239	46.52594355425	0
379	203114	46.53094355425	0
379	204029	46.53594355425	0
379	204918	46.54094355425	0
379	206201	46.54594355425	0
379	207530	46.55094355425	0
379	208416	46.55594355425	0
379	210054	46.564718129656	0
379	210770	46.569718129656	0
379	211758	46.574728595922	0
379	212827	46.579728595922	0
379	213794	46.584728595922	0
379	214460	46.589728595922	0
379	215029	46.594728595922	0
379	216132	46.602638041358	0
379	216894	46.607638041358	0
379	218192	46.615613625191	0
379	218549	46.620613625191	0
379	219186	46.625613625191	0
379	220044	46.630613625191	0
379	220684	46.636330014081	0
379	221025	46.641330014081	0
379	223252	46.655982564886	0
379	224023	46.660982564886	0
379	224983	46.667258807482	0
379	225711	46.672258807482	0
379	226688	46.6784260291	0
379	227128	46.6834260291	0
379	227606	46.6884260291	0
379	228498	46.6934260291	0
379	229170	46.6984260291	0
379	229849	46.7034260291	0
379	230623	46.709777312464	0
379	231412	46.714777312464	0
379	232860	46.727319839215	0
379	233550	46.732319839215	0
379	234383	46.737319839215	0
379	235076	46.742319839215	0
379	235983	46.747319839215	0
379	236735	46.752319839215	0
379	237285	46.757319839215	0
379	238158	46.763811322896	0
379	238612	46.768811322896	0
379	239063	46.774584792175	0
379	239722	46.779584792175	0
379	240581	46.788382065948	0
379	241036	46.793382065948	0
379	242037	46.798382065948	0
379	242691	46.803382065948	0
379	243460	46.808382065948	0
379	244006	46.816874803931	0
379	244109	46.821874803931	0
379	244673	46.828055233172	0
379	245452	46.833055233172	0
379	246018	46.838055233172	0
379	246463	46.846641097956	0
379	246468	46.851641097956	0
379	247006	46.859801071004	0
379	247345	46.864801071004	0
379	247805	46.874227299525	0
379	247806	46.879227299525	0
379	248265	46.920171326518	0
379	248266	46.925171326518	0
379	248565	47.505	1
379	249631	47.51	27
379	251061	47.515	0
379	252149	47.52	0
379	253625	47.525	0
379	254758	47.53	0
379	256057	47.535	0
379	257239	47.54	0
379	257829	47.545	0
379	258483	47.55	0
379	259606	47.555	0
379	260350	47.56	0
379	261946	47.565	0
379	263271	47.57	0
379	264091	47.575	0
379	264965	47.58	0
379	265940	47.585	0
379	267878	47.595597459755	0
379	268117	47.600597459755	0
379	270160	47.61048449527	0
379	271049	47.61548449527	0
379	271701	47.62048449527	0
379	272488	47.626678305464	0
379	272959	47.631678305464	0
379	281097	47.678545647689	0
379	282103	47.683545647689	0
379	283931	47.691264439108	0
379	284594	47.696264439108	0
379	285374	47.701264439108	0
379	286303	47.708677872687	0
379	287287	47.713677872687	0
379	288054	47.718677872687	0
379	292043	47.746402160009	0
379	292599	47.751402160009	0
379	293828	47.756902816098	0
379	294732	47.761902816098	0
379	295380	47.766902816098	0
379	297168	47.780881899073	0
379	297501	47.785881899073	0
379	298054	47.790881899073	0
379	298606	47.795881899073	0
379	299177	47.802463033213	0
379	299886	47.807463033213	0
379	300410	47.812463033213	0
379	301188	47.817463033213	0
379	301915	47.822463033213	0
379	302574	47.827463033213	0
379	303156	47.833818975687	0
379	304046	47.838818975687	0
379	304826	47.843818975687	0
379	304830	47.848818975687	0
379	305154	47.853818975687	0
379	305940	47.858818975687	0
379	307727	47.873079252654	0
379	307830	47.878079252654	0
379	308297	47.884616471324	0
379	308640	47.889616471324	0
379	308641	47.894616471324	0
379	308833	48.505	1
379	308941	48.51	0
379	310399	48.515670116859	25
379	311616	48.520670116859	0
379	312981	48.525670116859	0
379	313903	48.530670116859	0
379	315012	48.535670116859	0
379	315572	48.540670116859	0
379	316968	48.546836468652	0
379	317864	48.551836468652	0
379	319105	48.561503597229	0
379	320037	48.566503597229	0
379	320610	48.571503597229	0
379	321548	48.576549580002	0
379	322211	48.581549580002	0
379	323480	48.592106880478	0
379	324265	48.597106880478	0
379	325174	48.602106880478	0
379	326525	48.609720432512	0
379	326866	48.614720432512	0
379	327663	48.619748495981	0
379	328129	48.624748495981	0
379	328912	48.629748495981	0
379	330107	48.634748495981	0
379	330895	48.639748495981	0
379	331464	48.644748495981	0
379	332477	48.649748495981	0
379	333171	48.654748495981	0
379	334126	48.659748495981	0
379	335326	48.664748495981	0
379	335891	48.669748495981	0
379	337181	48.679819642675	0
379	337832	48.684819642675	0
379	339760	48.702812892448	0
379	340555	48.707812892448	0
379	341345	48.712812892448	0
379	342575	48.717812892448	0
379	343552	48.722812892448	0
379	344210	48.727812892448	0
379	345005	48.732812892448	0
379	345460	48.737812892448	0
379	345913	48.743678489028	0
379	346478	48.748678489028	0
379	346921	48.753678489028	0
379	347716	48.759233802083	0
379	348166	48.764233802083	0
379	348271	48.769233802083	0
379	348624	48.775112852757	0
379	349089	48.780112852757	0
379	349586	48.785112852757	0
379	350043	48.790112852757	0
379	350145	48.795112852757	0
379	350515	48.800278563	0
379	350970	48.805278563	0
379	351395	48.810278563	0
379	351877	48.831294360595	0
379	351878	48.836294360595	0
379	352099	49.505	1
379	352573	49.51	54
379	354460	49.515	0
379	356677	49.52	0
379	358067	49.525039387206	0
379	359452	49.530039387206	0
379	360598	49.535039387206	0
379	361744	49.540039387206	0
379	363132	49.545039387206	0
379	364783	49.550039387206	0
379	366784	49.556739772386	0
379	367795	49.561739772386	0
379	369484	49.566739772386	0
379	370703	49.571739772386	0
379	371860	49.576739772386	0
379	373113	49.581739772386	0
379	374332	49.586739772386	0
379	375438	49.591739772386	0
379	376706	49.596739772386	0
379	378237	49.604274448506	0
379	379877	49.609274448506	0
379	383008	49.626475614196	0
379	384180	49.631475614196	0
379	385181	49.636475614196	0
379	386433	49.641475614196	0
379	388767	49.650528436444	0
379	389488	49.655528436444	0
379	390701	49.660770340247	0
379	391675	49.665770340247	0
379	394207	49.67533207883	0
379	395565	49.68033207883	0
379	396471	49.68533207883	0
379	399594	49.701177332247	0
379	400641	49.706177332247	0
379	401722	49.711177332247	0
379	402741	49.716177332247	0
379	405008	49.726747370963	0
379	405829	49.731747370963	0
379	407066	49.736747370963	0
379	407862	49.741747370963	0
379	408833	49.746747370963	0
379	410342	49.751747370963	0
379	411356	49.756747370963	0
379	413490	49.766098710202	0
379	414656	49.771098710202	0
379	416259	49.780057184253	0
379	417832	49.785057184253	0
379	418956	49.790057184253	0
379	420689	49.798130980572	0
379	421482	49.803130980572	0
379	422611	49.808130980572	0
379	423466	49.813130980572	0
379	424711	49.818130980572	0
379	425856	49.823130980572	0
379	426857	49.828130980572	0
379	427901	49.833130980572	0
379	428970	49.838130980572	0
379	429968	49.843130980572	0
379	430759	49.848130980572	0
379	432951	49.859129784598	0
379	433661	49.864129784598	0
379	434782	49.869129784598	0
379	435987	49.874129784598	0
379	437020	49.879129784598	0
379	438257	49.884129784598	0
379	438947	49.889129784598	0
379	440190	49.894129784598	0
379	441960	49.902249135278	0
379	442509	49.907249135278	0
379	443520	49.912249135278	0
379	444581	49.917249135278	0
379	445475	49.922249135278	0
379	447335	49.934418190583	0
379	447871	49.939418190583	0
379	450597	49.953101618953	0
379	451812	49.958101618953	0
379	452147	49.963101618953	0
379	453470	49.976575455474	0
379	454275	49.981575455474	0
379	454709	49.986575455474	0
379	455056	49.991575455474	0
379	455609	49.996575455474	0
379	456534	50.001575455474	0
379	456982	50.006575455474	0
379	458158	50.014580995076	0
379	458268	50.019580995076	0
379	460237	50.039497465852	0
379	460728	50.044497465852	0
379	462185	50.054657508733	0
379	462558	50.059657508733	0
379	462559	50.064657508733	0
379	462663	50.072985645169	0
379	463038	50.077985645169	0
379	463525	50.082985645169	0
379	463627	50.087985645169	0
379	464007	50.093368102433	0
379	464008	50.098368102433	0
379	465024	50.14548810735	0
379	465368	50.15048810735	0
379	465483	50.505	1
379	465828	50.51	28
379	466886	50.515	0
379	468036	50.52	0
379	469240	50.525754971251	0
379	470352	50.530754971251	0
379	471662	50.535754971251	0
379	472666	50.540754971251	0
379	474277	50.548558558146	0
379	475277	50.553558558146	0
379	475621	50.558558558146	0
379	476786	50.563558558146	0
379	477768	50.568558558146	0
379	478929	50.573558558146	0
379	480252	50.578558558146	0
379	480924	50.583558558146	0
379	481960	50.589412937954	0
379	482845	50.594412937954	0
379	484457	50.606500317331	0
379	485156	50.611500317331	0
379	485938	50.616500317331	0
379	486978	50.623369347779	0
379	487944	50.628369347779	0
379	488771	50.633369347779	0
379	489431	50.638369347779	0
379	490454	50.645832605637	0
379	491242	50.650832605637	0
379	491901	50.655832605637	0
379	493625	50.669671231713	0
379	494218	50.674671231713	0
379	495513	50.68183572801	0
379	495863	50.68683572801	0
379	497744	50.700177157786	0
379	498737	50.705177157786	0
379	499541	50.710177157786	0
379	499891	50.715177157786	0
379	500608	50.720177157786	0
379	501605	50.725177157786	0
379	502835	50.736308273193	0
379	503212	50.741308273193	0
379	503930	50.746308273193	0
379	504737	50.751308273193	0
379	505329	50.756308273193	0
379	506294	50.762612664467	0
379	507058	50.767612664467	0
379	507505	50.772612664467	0
379	508343	50.777612664467	0
379	508809	50.782612664467	0
379	509284	50.787612664467	0
379	509843	50.792612664467	0
379	510992	50.802983371723	0
379	511712	50.807983371723	0
379	512292	50.827979265788	0
379	512959	50.832979265788	0
379	513885	50.847108335772	0
379	513890	50.852108335772	0
379	515690	50.886780983176	0
379	515691	50.891780983176	0
379	516190	50.900142123509	0
379	516191	50.905142123509	0
379	516662	50.917556694548	0
379	516663	50.922556694548	0
379	517643	50.941460997579	0
379	518128	50.946460997579	0
379	518129	50.951460997579	0
379	518812	51.505	1
379	518819	51.51	0
379	520162	51.518686075412	25
379	521134	51.523686075412	0
379	522209	51.528686075412	0
379	523199	51.533686075412	0
379	523869	51.538686075412	0
379	524709	51.543686075412	0
379	525838	51.548686075412	0
379	526858	51.553686075412	0
379	527098	51.558686075412	0
379	527553	51.563686075412	0
379	529701	51.57452715967	0
379	530604	51.57952715967	0
379	531441	51.58452715967	0
379	532035	51.58952715967	0
379	532770	51.59452715967	0
379	533466	51.59952715967	0
379	534510	51.605183835321	0
379	535321	51.610183835321	0
379	537231	51.622160561427	0
379	538139	51.627160561427	0
379	538826	51.632160561427	0
379	539753	51.641799675356	0
379	540292	51.646799675356	0
379	541132	51.652800928911	0
379	541728	51.657800928911	0
379	543129	51.667864584055	0
379	543801	51.672864584055	0
379	544472	51.678904952394	0
379	545145	51.683904952394	0
379	545558	51.688904952394	0
379	546253	51.693904952394	0
379	546902	51.698904952394	0
379	547498	51.703904952394	0
379	548542	51.7155635124	0
379	549216	51.7205635124	0
379	550269	51.728051484881	0
379	551110	51.733051484881	0
379	551689	51.738051484881	0
379	552915	51.743051484881	0
379	553508	51.748051484881	0
379	554459	51.753051484881	0
379	555158	51.758051484881	0
379	555406	51.763051484881	0
379	556445	51.771095183455	0
379	556689	51.776095183455	0
379	557243	51.784815187176	0
379	558175	51.789815187176	0
379	558785	51.794815187176	0
379	558994	51.799815187176	0
379	559479	51.855110955483	0
379	559480	51.860110955483	0
379	559698	52.505	1
379	559705	52.51	0
379	561200	52.51901845318	37
379	562970	52.52401845318	0
379	564486	52.52901845318	0
379	565681	52.53401845318	0
379	567324	52.53901845318	0
379	568492	52.54401845318	0
379	569674	52.54901845318	0
379	570963	52.55401845318	0
379	572225	52.55901845318	0
379	573343	52.56401845318	0
379	574599	52.56901845318	0
379	575746	52.57401845318	0
379	577089	52.579686514256	0
379	577941	52.584686514256	0
379	578770	52.589686514256	0
379	579834	52.59531247613	0
379	580862	52.60031247613	0
379	581799	52.60531247613	0
379	583344	52.61031247613	0
379	584264	52.61531247613	0
379	585254	52.62031247613	0
379	586185	52.62531247613	0
379	586896	52.63031247613	0
379	588097	52.63531247613	0
379	588926	52.64031247613	0
379	590499	52.645816499179	0
379	591548	52.650816499179	0
379	592360	52.655816499179	0
379	594242	52.665379662791	0
379	595336	52.670379662791	0
379	596452	52.676674863733	0
379	597191	52.681674863733	0
379	598488	52.688459538589	0
379	599370	52.693459538589	0
379	601658	52.70677733908	0
379	602620	52.71177733908	0
379	603445	52.71677733908	0
379	604265	52.72177733908	0
379	605440	52.727262113852	0
379	606460	52.732262113852	0
379	607285	52.737262113852	0
379	608234	52.742262113852	0
379	608702	52.747262113852	0
379	609403	52.752262113852	0
379	610357	52.757262113852	0
379	611174	52.762262113852	0
379	611607	52.767262113852	0
379	612451	52.772262113852	0
379	613115	52.777262113852	0
379	614043	52.782262113852	0
379	615019	52.787262113852	0
379	615678	52.792262113852	0
379	616370	52.797262113852	0
379	617060	52.802262113852	0
379	617407	52.807262113852	0
379	618961	52.818623460445	0
379	619943	52.823623460445	0
379	620643	52.828623460445	0
379	621486	52.834243978219	0
379	621961	52.839243978219	0
379	622454	52.844243978219	0
379	623518	52.851313150003	0
379	624258	52.856313150003	0
379	625290	52.861313150003	0
379	625774	52.866313150003	0
379	626262	52.871313150003	0
379	626741	52.876313150003	0
379	627765	52.89017110807	0
379	628245	52.89517110807	0
379	628611	52.90017110807	0
379	629083	52.90517110807	0
379	629084	52.91017110807	0
379	629543	52.925883984842	0
379	629544	52.930883984842	0
379	630022	52.956718148779	0
379	630023	52.961718148779	0
379	630242	53.505	1
379	630350	53.51	0
379	631814	53.516200258715	20
379	633211	53.521200258715	0
379	634562	53.526200258715	0
379	635289	53.531200258715	0
379	636706	53.536672473998	0
379	637513	53.541672473998	0
379	638442	53.546672473998	0
379	639598	53.551672473998	0
379	640365	53.556672473998	0
379	641368	53.561672473998	0
379	642316	53.566672473998	0
379	643138	53.571672473998	0
379	645072	53.576672473998	0
379	646585	53.581672473998	0
379	647559	53.586672473998	0
379	648902	53.591672473998	0
379	649725	53.596672473998	0
379	651092	53.601672473998	0
379	651893	53.606672473998	0
379	652908	53.611672473998	0
379	654042	53.616672473998	0
379	654923	53.621672473998	0
379	656471	53.626672473998	0
379	657366	53.631672473998	0
379	659134	53.645281583631	0
379	660421	53.650281583631	0
379	661289	53.655281583631	0
379	662344	53.661475142239	0
379	662705	53.666475142239	0
379	665456	53.684181086785	0
379	665558	53.689181086785	0
379	666583	53.699047745612	0
379	667279	53.704047745612	0
379	668173	53.709047745612	0
379	668174	53.714047745612	0
379	670899	53.732448546093	0
379	671010	53.737448546093	0
379	671802	53.742448546093	0
379	672300	53.747448546093	0
379	672310	53.752448546093	0
379	672778	53.757448546093	0
379	672779	53.762448546093	0
379	673373	53.773968511244	0
379	673826	53.778968511244	0
379	674215	53.783968511244	0
379	674216	53.788968511244	0
379	674540	54.505	1
379	676490	54.51	49
379	678334	54.515	0
379	680112	54.52	0
379	682061	54.525	0
379	683268	54.53	0
379	684877	54.535	0
379	686136	54.54	0
379	687504	54.545	0
379	689507	54.552293294693	0
379	690488	54.557293294693	0
379	691863	54.562293294693	0
379	692905	54.567293294693	0
379	694148	54.572293294693	0
379	695530	54.577293294693	0
379	697817	54.586634599893	0
379	699134	54.591634599893	0
379	700111	54.596634599893	0
379	700987	54.601634599893	0
379	703912	54.61305451085	0
379	705187	54.61805451085	0
379	706737	54.62305451085	0
379	708393	54.62805451085	0
379	711346	54.642083692805	0
379	712835	54.647083692805	0
379	714023	54.652083692805	0
379	718937	54.671913090287	0
379	719870	54.676913090287	0
379	725048	54.698427259701	0
379	726334	54.703427259701	0
379	727864	54.709952242614	0