file 273521 1353540120                                          
version 2
run AODVScenario_1f-70-20121121-15:03:55-4296
attr configname AODVScenario_1f
attr datetime 20121121-15:03:55
attr experiment AODVScenario_1f
attr inifile AODV.ini
attr iterationvars $numNodes=120
attr iterationvars2 "$numNodes=120, $repetition=0"
attr measurement $numNodes=120
attr network csma802154net
attr numNodes 120
attr processid 4296
attr repetition 0
attr replication #0
attr resultdir results
attr runnumber 70
attr seedset 70
vector 491  csma802154net.dataCentricNetworkMan  RREQPacketFrequency  ETV
491	7872 41162 959 3371064 1.005 7273.06413209332 1434 0 157 3418 320848
vector 492  csma802154net.dataCentricNetworkMan  RERRPacketFrequency  ETV
492	49034 41104 959 3371064 1.005 7273.06413209332 1434 0 0 0 0
vector 493  csma802154net.dataCentricNetworkMan  DiscoveryPacketFrequency  ETV
493	90138 41104 959 3371064 1.005 7273.06413209332 1434 0 0 0 0
vector 494  csma802154net.dataCentricNetworkMan  RegisterPacketFrequency  ETV
494	131242 41104 959 3371064 1.005 7273.06413209332 1434 0 1 12 12
vector 495  csma802154net.dataCentricNetworkMan  RReplyPacketFrequency  ETV
495	172346 41120 959 3371064 1.005 7273.06413209332 1434 0 132 1872 94580
vector 496  csma802154net.dataCentricNetworkMan  AODVDataPacketFrequency  ETV
496	213466 41123 959 3371064 1.005 7273.06413209332 1434 0 112 1527 78089
vector 503  csma802154net.dataCentricNetworkMan  pendingRegistrationVector  ETV
503	267064 531 56435 1315890 43.5 55.097716181565 22 0 3 19 31
vector 502  csma802154net.dataCentricNetworkMan  pendingRREQVector  ETV
502	265826 1238 56440 1223673 43.50001 54.584008034755 44 0 1 18 18
vector 500  csma802154net.dataCentricNetworkMan  PendingDataPacketsVector  ETV
500	254589 11237 1320042 3370767 70 7273.057612108987 364 0 3 390 702
vector 509  csma802154net.fixhost[5].udpApp  "End-to-end delay"  ETV
509	268785 595 1321633 3351774 70.024316032906 7270.018164032906 13 0.010556032907 0.049132032907 0.242004427787 0.0058578897991311
vector 488  csma802154net.dataCentricNetworkMan  dataPacketE2EDelay  ETV
488	1946 5926 1321633 3370767 70.024316032906 7273.057612108987 130 0.010556032907 0.085380120622 4.042490548107 0.15588654973146
vector 515  csma802154net.fixhost[11].udpApp  "End-to-end delay"  ETV
515	270554 595 1322224 3351176 70.030324050485 7270.014716050487 13 0.011516050487 0.030324050485 0.208332656327 0.0036367854039674
vector 516  csma802154net.fixhost[12].udpApp  "End-to-end delay"  ETV
516	271149 595 1323398 3352958 70.039844089895 7270.025196089897 13 0.021036089896 0.045284089897 0.367149168654 0.010918815018708
vector 507  csma802154net.fixhost[3].udpApp  "End-to-end delay"  ETV
507	268190 595 1327815 3359127 71.025156090026 7271.032156116772 13 0.024444090026 0.046844090025 0.401573223823 0.012820456782058
vector 505  csma802154net.fixhost[1].udpApp  "End-to-end delay"  ETV
505	267595 595 1328406 3358532 71.027364061914 7271.026972061914 13 0.018476061913 0.028572061913 0.306316804875 0.0073450015942385
vector 510  csma802154net.fixhost[6].udpApp  "End-to-end delay"  ETV
510	269380 593 1330179 3359739 71.036812116377 7271.03659614737 13 0.03659614737 0.085380120622 0.696757584911 0.041200563375458
vector 512  csma802154net.fixhost[8].udpApp  "End-to-end delay"  ETV
512	269973 581 1333681 3362982 72.02871606793 7272.018476067929 13 0.017836067929 0.033156094676 0.295436909831 0.006961943559385
vector 523  csma802154net.fixhost[19].udpApp  "End-to-end delay"  ETV
523	272339 587 1335476 3364772 72.06117209513 7272.029884095128 13 0.027644095129 0.062164120432 0.507277261981 0.021831091099391
vector 518  csma802154net.fixhost[14].udpApp  "End-to-end delay"  ETV
518	271744 595 1340065 3369356 73.031804084084 7273.027076084085 13 0.025476084083 0.034932084085 0.382917093097 0.01138995273063
vector 525  csma802154net.fixhost[21].udpApp  "End-to-end delay"  ETV
525	272926 595 1341476 3370767 73.061132108987 7273.057612108987 13 0.031516108987 0.078732108986 0.634725416821 0.033924050368497
