version 2
run AODVScenario_1f-50-20121121-14:55:59-3040
attr configname AODVScenario_1f
attr datetime 20121121-14:55:59
attr experiment AODVScenario_1f
attr inifile AODV.ini
attr iterationvars $numNodes=100
attr iterationvars2 "$numNodes=100, $repetition=0"
attr measurement $numNodes=100
attr network csma802154net
attr numNodes 100
attr processid 3040
attr repetition 0
attr replication #0
attr resultdir results
attr runnumber 50
attr seedset 50

vector 411  csma802154net.dataCentricNetworkMan  RREQPacketFrequency  ETV
vector 412  csma802154net.dataCentricNetworkMan  RERRPacketFrequency  ETV
vector 413  csma802154net.dataCentricNetworkMan  DiscoveryPacketFrequency  ETV
vector 414  csma802154net.dataCentricNetworkMan  RegisterPacketFrequency  ETV
vector 415  csma802154net.dataCentricNetworkMan  RReplyPacketFrequency  ETV
vector 416  csma802154net.dataCentricNetworkMan  AODVDataPacketFrequency  ETV
vector 423  csma802154net.dataCentricNetworkMan  pendingRegistrationVector  ETV
vector 422  csma802154net.dataCentricNetworkMan  pendingRREQVector  ETV
vector 420  csma802154net.dataCentricNetworkMan  PendingDataPacketsVector  ETV
vector 427  csma802154net.fixhost[3].udpApp  "End-to-end delay"  ETV
vector 408  csma802154net.dataCentricNetworkMan  dataPacketE2EDelay  ETV
vector 429  csma802154net.fixhost[5].udpApp  "End-to-end delay"  ETV
vector 430  csma802154net.fixhost[6].udpApp  "End-to-end delay"  ETV
vector 428  csma802154net.fixhost[4].udpApp  "End-to-end delay"  ETV
vector 431  csma802154net.fixhost[7].udpApp  "End-to-end delay"  ETV
vector 440  csma802154net.fixhost[16].udpApp  "End-to-end delay"  ETV
vector 442  csma802154net.fixhost[18].udpApp  "End-to-end delay"  ETV
vector 447  csma802154net.fixhost[23].udpApp  "End-to-end delay"  ETV
vector 434  csma802154net.fixhost[10].udpApp  "End-to-end delay"  ETV
vector 438  csma802154net.fixhost[14].udpApp  "End-to-end delay"  ETV
vector 448  csma802154net.fixhost[24].udpApp  "End-to-end delay"  ETV
408	791197	70.014076029499	0.014076029499
408	792171	70.023276058274	0.023276058274
408	795650	71.033796088457	0.033796088457
408	796652	71.056804060069	0.056804060069
408	797660	71.064404119208	0.064404119208
408	800931	72.023276088486	0.023276088486
408	801985	72.029956109826	0.029956109826
408	802514	72.034716138567	0.034716138567
408	806626	73.0305560907	0.0305560907
408	809202	73.063940117387	0.063940117387
408	809713	73.068700149578	0.068700149578
408	933660	670.013756029501	0.013756029501
408	934634	670.024236058276	0.024236058276
408	938113	671.025476088457	0.025476088457
408	939615	671.051932060069	0.051932060069
408	940838	671.100420119207	0.100420119207
408	944629	672.023596088486	0.023596088486
408	945637	672.051964109825	0.051964109825
408	946705	672.063620138567	0.063620138567
408	951595	673.0318360907	0.0318360907
408	952613	673.037876150532	0.037876150532
408	954423	673.073852180483	0.073852180483
408	1078370	1270.015996029501	0.015996029501
408	1079344	1270.022956058277	0.022956058277
408	1082329	1271.023916060069	0.023916060069
408	1083546	1271.052924088457	0.052924088457
408	1084555	1271.080652119208	0.080652119208
408	1087327	1272.020076088486	0.020076088486
408	1087847	1272.025796109826	0.025796109826
408	1089419	1272.043532138567	0.043532138567
408	1093531	1273.0324760907	0.0324760907
408	1095568	1273.071972150531	0.071972150531
408	1096613	1273.078012180483	0.078012180483
408	1220660	1870.013116029501	0.013116029501
408	1221634	1870.021996058277	0.021996058277
408	1224416	1871.024876060069	0.024876060069
408	1225420	1871.032124088457	0.032124088457
408	1226425	1871.040332119207	0.040332119207
408	1228700	1872.017556056286	0.017556056286
408	1229918	1872.028324091047	0.028324091047
408	1231494	1872.061452138567	0.061452138567
408	1235606	1873.0311960907	0.0311960907
408	1237876	1873.062660117388	0.062660117388
408	1238930	1873.09198814958	0.09198814958
408	1362878	2470.0166360295	0.0166360295
408	1363852	2470.026796058276	0.026796058276
408	1366837	2471.021996060068	0.021996060068
408	1367848	2471.049084088455	0.049084088455
408	1368853	2471.056972119207	0.056972119207
408	1371335	2472.019156056286	0.019156056286
408	1373397	2472.052892091048	0.052892091048
408	1374155	2472.079372138567	0.079372138567
408	1379294	2473.0311960907	0.0311960907
408	1379786	2473.038164117388	0.038164117388
408	1381341	2473.05892414958	0.05892414958
408	1505288	3070.011196029501	0.011196029501
408	1506261	3070.019756058277	0.019756058277
408	1509734	3071.023236088456	0.023236088456
408	1510249	3071.025764060068	0.025764060068
408	1511260	3071.052244119206	0.052244119206
408	1514032	3072.020396088486	0.020396088486
408	1514547	3072.023876109826	0.023876109826
408	1516119	3072.036884138566	0.036884138566
408	1520213	3073.0305560907	0.0305560907
408	1521952	3073.055444117387	0.055444117387
408	1523507	3073.08509214958	0.08509214958
408	1647554	3670.013116029501	0.013116029501
408	1648528	3670.021036058277	0.021036058277
408	1651805	3671.025516060066	0.025516060066
408	1653286	3671.054732119205	0.054732119205
408	1653801	3671.058292088455	0.058292088455
408	1656069	3672.020436056286	0.020436056286
408	1657080	3672.028644091048	0.028644091048
408	1658649	3672.040724138567	0.040724138567
408	1663759	3673.032116123842	0.032116123842
408	1665015	3673.05917215053	0.05917215053
408	1666070	3673.088180180481	0.088180180481
408	1790017	4270.013756029501	0.013756029501
408	1790991	4270.022316058276	0.022316058276
408	1793773	4271.021996060068	0.021996060068
408	1794978	4271.027644088455	0.027644088455
408	1795987	4271.055372119205	0.055372119205
408	1799258	4272.023596088485	0.023596088485
408	1800436	4272.031196138565	0.031196138565
408	1801068	4272.057332109824	0.057332109824
408	1805192	4273.031196090698	0.031196090698
408	1807226	4273.065252150528	0.065252150528
408	1808276	4273.074172180481	0.074172180481
408	1932223	4870.011836029501	0.011836029501
408	1933197	4870.021036058277	0.021036058277
408	1935975	4871.020716060069	0.020716060069
408	1937701	4871.054804119208	0.054804119208
408	1938217	4871.058292088457	0.058292088457
408	1942033	4872.027676138567	0.027676138567
408	1942540	4872.031204088486	0.031204088486
408	1943057	4872.044284109825	0.044284109825
408	1948618	4873.045444156988	0.045444156988
408	1949254	4873.050812175512	0.050812175512
408	1950305	4873.075732205464	0.075732205464
408	2074352	5470.012796029501	0.012796029501
408	2075326	5470.022636058277	0.022636058277
408	2078105	5471.022316060068	0.022316060068
408	2079318	5471.032124088456	0.032124088456
408	2080327	5471.061772119207	0.061772119207
408	2083307	5472.020716088485	0.020716088485
408	2083826	5472.025796109825	0.025796109825
408	2085399	5472.053844138565	0.053844138565
408	2090296	5473.033044090699	0.033044090699
408	2091865	5473.045444180484	0.045444180484
408	2092362	5473.050284150532	0.050284150532
408	2216313	6070.012156029501	0.012156029501
408	2217287	6070.020716058277	0.020716058277
408	2220065	6071.018796060068	0.018796060068
408	2221071	6071.026044088456	0.026044088456
408	2222072	6071.033364119207	0.033364119207
408	2226006	6072.030556138567	0.030556138567
408	2226639	6072.061852088486	0.061852088486
408	2227154	6072.066612109825	0.066612109825
408	2231660	6073.0331160907	0.0331160907
408	2233296	6073.060812117387	0.060812117387
408	2234346	6073.071260147339	0.071260147339
408	2358791	6670.0127960295	0.0127960295
408	2359765	6670.022956058276	0.022956058276
408	2362547	6671.022316060068	0.022316060068
408	2363549	6671.028604088456	0.028604088456
408	2364550	6671.034964119206	0.034964119206
408	2366825	6672.018196056286	0.018196056286
408	2367838	6672.029604091048	0.029604091048
408	2369410	6672.043852138567	0.043852138567
408	2373521	6673.027996090699	0.027996090699
408	2375260	6673.056012117388	0.056012117388
408	2376815	6673.08246014958	0.08246014958
408	2500862	7270.013436029501	0.013436029501
408	2501836	7270.023276058277	0.023276058277
408	2504821	7271.021036060069	0.021036060069
408	2506329	7271.052852088457	0.052852088457
408	2506836	7271.054804119208	0.054804119208
408	2509318	7272.018836056286	0.018836056286
408	2510334	7272.045924091048	0.045924091048
408	2511901	7272.058644138567	0.058644138567
408	2516800	7273.038796156987	0.038796156987
408	2518373	7273.049316205462	0.049316205462
408	2519619	7273.081460175509	0.081460175509
411	908	1.005	1
411	1225	1.01	30
411	2582	1.015	83
411	4353	1.02	121
411	7132	1.025	60
411	9181	1.03	72
411	11717	1.035	90
411	13889	1.04	126
411	15767	1.045	51
411	16942	1.05	63
411	18284	1.055	73
411	19573	1.06	48
411	20625	1.065	63
411	21593	1.07	68
411	22675	1.075	23
411	23134	1.08	51
411	23933	1.085	57
411	25041	1.09	74
411	25154	1.095	0
411	25851	1.100547446892	58
411	26186	1.105547446892	26
411	26529	1.110547446892	49
411	26915	1.115547446892	37
411	26916	1.120547446892	0
411	27355	1.154815307573	47
411	27784	1.159815307573	45
411	27785	1.164815307573	0
411	36480	43.505	1
411	36487	43.51	0
411	38091	43.518343510554	26
411	39277	43.523343510554	0
411	40290	43.528343510554	0
411	41456	43.533343510554	0
411	42355	43.538343510554	0
411	43101	43.543343510554	0
411	44042	43.548343510554	0
411	44541	43.553343510554	0
411	45385	43.558343510554	0
411	45948	43.563343510554	0
411	46942	43.569801306146	0
411	48006	43.574801306146	0
411	51133	43.597137865126	0
411	52183	43.602137865126	0
411	53816	43.611391353243	0
411	54186	43.616391353243	0
411	55125	43.621391353243	0
411	55957	43.626391353243	0
411	57308	43.631391353243	0
411	57898	43.636391353243	0
411	59058	43.641976294428	0
411	59759	43.646976294428	0
411	60000	43.652217783045	0
411	60957	43.657217783045	0
411	61708	43.663649117186	0
411	62545	43.668649117186	0
411	63873	43.673649117186	0
411	65990	43.687406663038	0
411	66919	43.692406663038	0
411	67845	43.697406663038	0
411	68452	43.702406663038	0
411	69158	43.707406663038	0
411	69744	43.712406663038	0
411	71104	43.718601158718	0
411	72008	43.723601158718	0
411	72879	43.732331165532	0
411	73377	43.737331165532	0
411	74330	43.742331165532	0
411	74840	43.747331165532	0
411	75595	43.752331165532	0
411	76311	43.757331165532	0
411	76662	43.763922972512	0
411	77131	43.768922972512	0
411	77820	43.781911608422	0
411	77930	43.786911608422	0
411	78312	43.793401619976	0
411	78920	43.798401619976	0
411	80706	43.81545918694	0
411	81212	43.82045918694	0
411	81910	43.82545918694	0
411	82384	43.83045918694	0
411	82385	43.83545918694	0
411	83346	43.856075660121	0
411	83350	43.861075660121	0
411	83806	43.868220748163	0
411	83807	43.873220748163	0
411	84272	43.912276736206	0
411	84273	43.917276736206	0
411	84481	44.505	1
411	84488	44.51	0
411	86149	44.519062560785	37
411	87904	44.524062560785	0
411	89321	44.529062560785	0
411	90569	44.534062560785	0
411	91598	44.539062560785	0
411	92567	44.544062560785	0
411	93414	44.549062560785	0
411	95714	44.559125784775	0
411	96657	44.564125784775	0
411	98173	44.569125784775	0
411	99458	44.574125784775	0
411	100296	44.579125784775	0
411	101151	44.584125784775	0
411	102518	44.589125784775	0
411	103434	44.594125784775	0
411	104517	44.599145335001	0
411	105743	44.604145335001	0
411	106629	44.609145335001	0
411	107689	44.614145335001	0
411	108544	44.619145335001	0
411	109386	44.624145335001	0
411	112975	44.649040314738	0
411	113694	44.654040314738	0
411	120121	44.687320488004	0
411	120999	44.692320488004	0
411	121996	44.697320488004	0
411	123252	44.702320488004	0
411	126260	44.718056398948	0
411	126889	44.723056398948	0
411	127877	44.728056398948	0
411	129232	44.73778317413	0
411	130019	44.74278317413	0
411	130968	44.748700767657	0
411	131922	44.753700767657	0
411	133356	44.761472407187	0
411	134269	44.766472407187	0
411	135349	44.773100298465	0
411	136562	44.778100298465	0
411	137071	44.783100298465	0
411	138313	44.788100298465	0
411	140702	44.803785852532	0
411	141210	44.808785852532	0
411	142310	44.813785852532	0
411	143674	44.818785852532	0
411	144402	44.823785852532	0
411	145581	44.834368658369	0
411	146184	44.839368658369	0
411	147109	44.844368658369	0
411	148046	44.852531603305	0
411	148387	44.857531603305	0
411	148394	44.862531603305	0
411	149428	44.867531603305	0
411	150545	44.872531603305	0
411	151199	44.87826058688	0
411	151552	44.88326058688	0
411	152174	44.888988377425	0
411	152911	44.893988377425	0
411	153509	44.901327053124	0
411	154022	44.906327053124	0
411	154421	44.911327053124	0
411	154422	44.916327053124	0
411	155537	44.932542381887	0
411	155938	44.937542381887	0
411	156432	44.942542381887	0
411	156433	44.947542381887	0
411	156641	45.505	1
411	156651	45.51	0
411	158035	45.518032208277	29
411	159461	45.523032208277	0
411	160835	45.528032208277	0
411	161566	45.533032208277	0
411	164515	45.550231891945	0
411	165236	45.555231891945	0
411	166294	45.560231891945	0
411	167225	45.565231891945	0
411	168128	45.570231891945	0
411	169132	45.575520412586	0
411	169696	45.580520412586	0
411	171199	45.58761590047	0
411	171910	45.59261590047	0
411	173220	45.601031952075	0
411	174071	45.606031952075	0
411	175246	45.611031952075	0
411	176303	45.616031952075	0
411	177011	45.621031952075	0
411	177915	45.626031952075	0
411	181237	45.647269252108	0
411	182167	45.652269252108	0
411	182908	45.657269252108	0
411	183619	45.662269252108	0
411	184432	45.668956051843	0
411	185124	45.673956051843	0
411	186190	45.679458318068	0
411	187157	45.684458318068	0
411	187749	45.689458318068	0
411	190652	45.70498996309	0
411	191776	45.70998996309	0
411	193279	45.71498996309	0
411	194019	45.721212371978	0
411	195075	45.726212371978	0
411	199250	45.752976719004	0
411	200195	45.757976719004	0
411	200673	45.762976719004	0
411	201640	45.768383292717	0
411	202607	45.773383292717	0
411	203062	45.778383292717	0
411	203942	45.785116960456	0
411	204541	45.790116960456	0
411	205713	45.796003619331	0
411	206582	45.801003619331	0
411	207186	45.806003619331	0
411	208050	45.811003619331	0
411	208638	45.816003619331	0
411	209525	45.821003619331	0
411	210556	45.826003619331	0
411	211374	45.831003619331	0
411	211959	45.836003619331	0
411	212071	45.841003619331	0
411	212915	45.850071972557	0
411	213842	45.855071972557	0
411	214816	45.860903977314	0
411	215048	45.865903977314	0
411	215404	45.871644698605	0
411	215409	45.876644698605	0
411	216487	45.884214386599	0
411	217314	45.889214386599	0
411	217767	45.894214386599	0
411	218241	45.899214386599	0
411	218731	45.908187138951	0
411	219211	45.913187138951	0
411	219212	45.918187138951	0
411	220001	46.505	1
411	221342	46.51	37
411	222796	46.515	0
411	224003	46.52	0
411	225813	46.525939268672	0
411	226306	46.530939268672	0
411	227558	46.537568812819	0
411	229018	46.542568812819	0
411	230299	46.547568812819	0
411	231734	46.554387293509	0
411	232582	46.559387293509	0
411	233434	46.564387293509	0
411	234414	46.569387293509	0
411	235159	46.574387293509	0
411	236494	46.579387293509	0
411	237505	46.584387293509	0
411	239887	46.599523183194	0
411	240763	46.604523183194	0
411	241616	46.609523183194	0
411	242368	46.614523183194	0
411	243438	46.619523183194	0
411	244305	46.624523183194	0
411	246295	46.634404489831	0
411	246796	46.639404489831	0
411	247518	46.644404489831	0
411	248656	46.649404489831	0
411	249507	46.654404489831	0
411	251501	46.670600837509	0
411	252520	46.675600837509	0
411	253388	46.680600837509	0
411	254450	46.685600837509	0
411	255793	46.690956015584	0
411	256746	46.695956015584	0
411	257386	46.700956015584	0
411	258584	46.705956015584	0
411	259493	46.710956015584	0
411	261204	46.722951707594	0
411	261936	46.727951707594	0
411	262689	46.732951707594	0
411	264094	46.737951707594	0
411	265166	46.742951707594	0
411	267401	46.756159247969	0
411	268016	46.761159247969	0
411	269108	46.766159247969	0
411	270055	46.771159247969	0
411	270929	46.776159247969	0
411	271758	46.781159247969	0
411	272280	46.786159247969	0
411	272399	46.791159247969	0
411	273412	46.796211387974	0
411	274318	46.801211387974	0
411	274803	46.806211387974	0
411	274913	46.811211387974	0
411	275774	46.816884701034	0
411	275775	46.821884701034	0
411	276784	46.837930870055	0
411	276791	46.842930870055	0
411	277270	46.850594886627	0
411	277271	46.855594886627	0
411	278285	46.870946698628	0
411	278398	46.875946698628	0
411	278800	46.881864459734	0
411	278801	46.886864459734	0
411	279402	46.937650719887	0
411	279906	46.942650719887	0
411	280280	46.947650719887	0
411	280603	47.505	1
411	282094	47.51	34
411	284282	47.515	0
411	285436	47.52	0
411	286719	47.525	0
411	287417	47.53	0
411	288404	47.535	0
411	289525	47.54	0
411	290626	47.545	0
411	291752	47.55	0
411	292797	47.555	0
411	293877	47.56	0
411	295067	47.565	0
411	296038	47.57	0
411	296842	47.575	0
411	298372	47.581279338838	0
411	299339	47.586279338838	0
411	300254	47.591279338838	0
411	301466	47.598959957662	0
411	302300	47.603959957662	0
411	303391	47.608959957662	0
411	304440	47.613959957662	0
411	305203	47.618959957662	0
411	306171	47.623959957662	0
411	307037	47.628959957662	0
411	308124	47.633959957662	0
411	308947	47.638959957662	0
411	310261	47.647773191319	0
411	311239	47.652773191319	0
411	311728	47.657773191319	0
411	312933	47.663915082393	0
411	313632	47.668915082393	0
411	314615	47.674033799702	0
411	315615	47.679033799702	0
411	316427	47.684033799702	0
411	317392	47.689033799702	0
411	317880	47.694033799702	0
411	319799	47.706645115308	0
411	320158	47.711645115308	0
411	321243	47.716645115308	0
411	321614	47.721645115308	0
411	322246	47.726645115308	0
411	323048	47.731645115308	0
411	323303	47.736645115308	0
411	323699	47.74179018576	0
411	324191	47.74679018576	0
411	324762	47.75179018576	0
411	325914	47.75679018576	0
411	326641	47.76179018576	0
411	328080	47.770605374726	0
411	328773	47.775605374726	0
411	329282	47.780605374726	0
411	329794	47.785605374726	0
411	330419	47.790605374726	0
411	331271	47.795605374726	0
411	331533	47.800605374726	0
411	331534	47.805605374726	0
411	332537	47.819359988078	0
411	333410	47.824359988078	0
411	334076	47.829359988078	0
411	336007	47.847399039676	0
411	336008	47.852399039676	0
411	336642	47.878859830893	0
411	337038	47.883859830893	0
411	337039	47.888859830893	0
411	337554	47.902484005379	0
411	337555	47.907484005379	0
411	337772	48.505	1
411	338616	48.51	43
411	340832	48.515	0
411	342545	48.52	0
411	343472	48.525	0
411	344765	48.53	0
411	345428	48.535	0
411	346756	48.54	0
411	348111	48.545	0
411	349184	48.55	0
411	350560	48.557757869694	0
411	351525	48.562757869694	0
411	352806	48.567757869694	0
411	353947	48.574008951939	0
411	354809	48.579008951939	0
411	356359	48.584486758827	0
411	357545	48.589486758827	0
411	358433	48.594486758827	0
411	359943	48.603301870525	0
411	360806	48.608301870525	0
411	362361	48.613301870525	0
411	365394	48.627029881891	0
411	366634	48.632029881891	0
411	368502	48.637029881891	0
411	369900	48.642029881891	0
411	371089	48.647029881891	0
411	372164	48.652528968036	0
411	372949	48.657528968036	0
411	373806	48.662528968036	0
411	375451	48.667528968036	0
411	376671	48.672528968036	0
411	377842	48.677528968036	0
411	379290	48.685656613018	0
411	380395	48.690656613018	0
411	381842	48.695656613018	0
411	383597	48.701592105393	0
411	384818	48.706592105393	0
411	386280	48.711592105393	0
411	387227	48.716592105393	0
411	388731	48.721592105393	0
411	389720	48.726621374721	0
411	390558	48.731621374721	0
411	391928	48.741150847691	0
411	393147	48.746150847691	0
411	394116	48.751150847691	0
411	395647	48.758351384932	0
411	396666	48.763351384932	0
411	397837	48.768351384932	0
411	398803	48.773351384932	0
411	399859	48.778351384932	0
411	401051	48.783351384932	0
411	401946	48.788351384932	0
411	402740	48.793351384932	0
411	403819	48.798351384932	0
411	405189	48.803351384932	0
411	405928	48.808351384932	0
411	406312	48.813351384932	0
411	407315	48.819198629211	0
411	408302	48.824198629211	0
411	409314	48.829198629211	0
411	410350	48.834198629211	0
411	411081	48.839198629211	0
411	413098	48.848276197845	0
411	413217	48.853276197845	0
411	414098	48.858276197845	0
411	414375	48.863276197845	0
411	415530	48.87021687618	0
411	416270	48.87521687618	0
411	417262	48.88459292108	0
411	418165	48.88959292108	0
411	419197	48.90255290182	0
411	419198	48.90755290182	0
411	420022	48.920528131326	0
411	420920	48.925528131326	0
411	421030	48.930528131326	0
411	421528	48.936277655337	0
411	422035	48.941277655337	0
411	422774	48.946277655337	0
411	423147	48.951277655337	0
411	423148	48.956277655337	0
411	424121	48.975264977513	0
411	424125	48.980264977513	0
411	424625	48.988664984929	0
411	424629	48.993664984929	0
411	425324	49.000464993293	0
411	425804	49.005464993293	0
411	425837	49.505	1
411	425844	49.51	0
411	428322	49.520114739383	39
411	430287	49.525114739383	0
411	431036	49.530114739383	0
411	432535	49.535317859677	0
411	433647	49.540317859677	0
411	435181	49.545317859677	0
411	436450	49.551841567568	0
411	437845	49.556841567568	0
411	439309	49.561841567568	0
411	440229	49.566841567568	0
411	441239	49.571841567568	0
411	442415	49.576841567568	0
411	443887	49.581841567568	0
411	444929	49.586841567568	0
411	446789	49.599910108985	0
411	447783	49.604910108985	0
411	449698	49.61067343632	0
411	450711	49.61567343632	0
411	452868	49.625636348681	0
411	453742	49.630636348681	0
411	455102	49.637287675182	0
411	456107	49.642287675182	0
411	457869	49.650617471772	0
411	458375	49.655617471772	0
411	462315	49.675605016399	0
411	463195	49.680605016399	0
411	464623	49.685605016399	0
411	465982	49.690605016399	0
411	467324	49.695605016399	0
411	468764	49.700605016399	0
411	472504	49.718985456791	0
411	473557	49.723985456791	0
411	474105	49.728985456791	0
411	475096	49.733985456791	0
411	476443	49.738985456791	0
411	477402	49.743985456791	0
411	478646	49.749212958459	0
411	479994	49.754212958459	0
411	480867	49.759212958459	0
411	481638	49.764212958459	0
411	482300	49.769212958459	0
411	483626	49.774212958459	0
411	486855	49.795801441732	0
411	488293	49.800801441732	0
411	489486	49.805801441732	0
411	490477	49.811593010128	0
411	490861	49.816593010128	0
411	491485	49.821593010128	0
411	492501	49.826593010128	0
411	493765	49.831593010128	0
411	494974	49.836593010128	0
411	496226	49.842969498639	0
411	497159	49.847969498639	0
411	497778	49.852969498639	0
411	498923	49.857969498639	0
411	499550	49.862969498639	0
411	501498	49.874716376217	0
411	502019	49.879716376217	0
411	502884	49.884716376217	0
411	503388	49.889716376217	0
411	503891	49.894716376217	0
411	504905	49.899716376217	0
411	506584	49.911326904407	0
411	507045	49.916326904407	0
411	507524	49.923286994575	0
411	508009	49.928286994575	0
411	508510	49.940411092516	0
411	508514	49.945411092516	0
411	509001	49.957341100464	0
411	509002	49.962341100464	0
411	509247	50.505	1
411	509363	50.51	0
411	511791	50.515727541501	43
411	514030	50.520727541501	0
411	515757	50.525727541501	0
411	517075	50.532932313675	0
411	518005	50.537932313675	0
411	519348	50.542932313675	0
411	521034	50.547932313675	0
411	522475	50.552932313675	0
411	523837	50.55927671056	0
411	524949	50.56427671056	0
411	526327	50.570638561203	0
411	527572	50.575638561203	0
411	528727	50.580638561203	0
411	530177	50.585638561203	0
411	531013	50.590638561203	0
411	532775	50.599267060955	0
411	533575	50.604267060955	0
411	535329	50.609267060955	0
411	536765	50.615735162901	0
411	538087	50.620735162901	0
411	540444	50.632868720108	0
411	541468	50.637868720108	0
411	542511	50.642868720108	0
411	543763	50.647868720108	0
411	544230	50.652868720108	0
411	545444	50.657868720108	0
411	546525	50.662868720108	0
411	549308	50.679071179348	0
411	550327	50.684071179348	0
411	551534	50.689071179348	0
411	552654	50.694071179348	0
411	554673	50.70441904879	0
411	555571	50.70941904879	0
411	556716	50.71441904879	0
411	558301	50.71941904879	0
411	559486	50.72441904879	0
411	560747	50.732063193912	0
411	561997	50.737063193912	0
411	563092	50.742063193912	0
411	564065	50.747063193912	0
411	565061	50.752063193912	0
411	565852	50.757063193912	0
411	566769	50.762063193912	0
411	568091	50.767063193912	0
411	569284	50.773979068177	0
411	569925	50.778979068177	0
411	571039	50.783979068177	0
411	572245	50.788979068177	0
411	572891	50.793979068177	0
411	574264	50.798979068177	0
411	575342	50.803979068177	0
411	577480	50.817474360018	0
411	578457	50.822474360018	0
411	579362	50.827474360018	0
411	580320	50.832474360018	0
411	582812	50.848053310553	0
411	584021	50.853053310553	0
411	584885	50.858053310553	0
411	586020	50.863053310553	0
411	587508	50.87212827417	0
411	587886	50.87712827417	0
411	588622	50.88212827417	0
411	589257	50.88712827417	0
411	590140	50.89212827417	0
411	590648	50.89712827417	0
411	590650	50.90212827417	0
411	591649	50.911348251821	0
411	592163	50.916348251821	0
411	592164	50.921348251821	0
411	592693	50.931751039098	0
411	592694	50.936751039098	0
411	593203	50.948504514344	0
411	593313	50.953504514344	0
411	593722	50.958892263843	0
411	593723	50.963892263843	0
411	594240	50.972688534889	0
411	594241	50.977688534889	0
411	595074	51.000132275119	0
411	595608	51.005132275119	0
411	595996	51.010132275119	0
411	596032	51.505	1
411	596039	51.51	0
411	597630	51.519234667654	32
411	599567	51.524234667654	0
411	601058	51.529234667654	0
411	602559	51.534234667654	0
411	604275	51.540481665024	0
411	605490	51.545481665024	0
411	606616	51.550481665024	0
411	607831	51.555639957213	0
411	609110	51.560639957213	0
411	610639	51.568340863468	0
411	612007	51.573340863468	0
411	613246	51.578340863468	0
411	614226	51.583340863468	0
411	615795	51.588340863468	0
411	616918	51.593340863468	0
411	618147	51.598340863468	0
411	619751	51.603340863468	0
411	620244	51.608340863468	0
411	624401	51.632153225271	0
411	625410	51.637153225271	0
411	626502	51.642153225271	0
411	627095	51.647153225271	0
411	627589	51.652555973621	0
411	628269	51.657555973621	0
411	628900	51.662555973621	0
411	630442	51.667555973621	0
411	631658	51.672555973621	0
411	632440	51.677555973621	0
411	633164	51.682555973621	0
411	633645	51.687555973621	0
411	636141	51.704435619372	0
411	636630	51.709435619372	0
411	637632	51.715119662629	0
411	638480	51.720119662629	0
411	640559	51.734358602143	0
411	641430	51.739358602143	0
411	642139	51.744358602143	0
411	643138	51.749358602143	0
411	643379	51.754358602143	0
411	644716	51.76493596985	0
411	645691	51.76993596985	0
411	646511	51.77493596985	0
411	647413	51.77993596985	0
411	648772	51.790652423932	0
411	649485	51.795652423932	0
411	650253	51.800652423932	0
411	650749	51.805652423932	0
411	652195	51.81266117797	0
411	652816	51.81766117797	0
411	653711	51.82266117797	0
411	654672	51.82766117797	0
411	655661	51.83266117797	0
411	656032	51.83766117797	0
411	656178	51.84266117797	0
411	656898	51.854301678449	0
411	657156	51.859301678449	0
411	657399	51.864301678449	0
411	658544	51.886520393159	0
411	658932	51.891520393159	0
411	658933	51.896520393159	0
411	659920	51.919371986996	0
411	659921	51.924371986996	0
411	660178	52.505	1
411	660725	52.51	15
411	661924	52.515	0
411	662995	52.52	0
411	664008	52.525	0
411	664508	52.53	0
411	665527	52.535	0
411	666136	52.54	0
411	667131	52.545	0
411	667733	52.55	0
411	668491	52.555	0
411	669948	52.56	0
411	670788	52.565930546638	0
411	672016	52.570930546638	0
411	674076	52.581864629535	0
411	674805	52.586864629535	0
411	676964	52.60334963291	0
411	677837	52.60834963291	0
411	678453	52.61334963291	0
411	679387	52.61834963291	0
411	680188	52.62334963291	0
411	680672	52.62834963291	0
411	681615	52.63334963291	0
411	682453	52.640053835014	0
411	683041	52.645053835014	0
411	683600	52.650053835014	0
411	684325	52.65838959051	0
411	684785	52.66338959051	0
411	685848	52.677362989959	0
411	686314	52.682362989959	0
411	687221	52.687362989959	0
411	687331	52.692362989959	0
411	688705	52.7099978604	0
411	689329	52.7149978604	0
411	690131	52.7199978604	0
411	690253	52.7249978604	0
411	690495	53.505	1
411	690505	53.51	0
411	692066	53.517496289032	25
411	693722	53.522496289032	0
411	695068	53.527496289032	0
411	695830	53.532496289032	0
411	696674	53.537496289032	0
411	698177	53.542496289032	0
411	699398	53.547496289032	0
411	700784	53.552930383918	0
411	701881	53.557930383918	0
411	702637	53.562930383918	0
411	703555	53.567930383918	0
411	705260	53.574697548186	0
411	706232	53.579697548186	0
411	707786	53.584697548186	0
411	708483	53.589697548186	0
411	709734	53.59521409349	0
411	710605	53.60021409349	0
411	711497	53.607136960052	0
411	712179	53.612136960052	0
411	713644	53.620427174836	0
411	714230	53.625427174836	0
411	715102	53.632865917366	0
411	716027	53.637865917366	0
411	717018	53.642865917366	0
411	718455	53.652977290162	0
411	719558	53.657977290162	0
411	720049	53.662977290162	0
411	720675	53.667977290162	0
411	722280	53.678950897585	0
411	722875	53.683950897585	0
411	724151	53.693325580585	0
411	724882	53.698325580585	0
411	725496	53.703325580585	0
411	726233	53.708325580585	0
411	727126	53.713325580585	0
411	727891	53.718325580585	0
411	728864	53.723325580585	0
411	729252	53.728325580585	0
411	730946	53.738984846232	0
411	731447	53.743984846232	0
411	732407	53.748984846232	0
411	733571	53.756820366257	0
411	734421	53.761820366257	0
411	735270	53.766820366257	0
411	736116	53.771820366257	0
411	737116	53.777384869973	0
411	737743	53.782384869973	0
411	739355	53.799786821857	0
411	739868	53.804786821857	0
411	740282	53.809786821857	0
411	740283	53.814786821857	0
411	740794	53.827965341298	0
411	740795	53.832965341298	0
411	741829	53.861525366734	0
411	741833	53.866525366734	0
411	742334	53.890106407494	0
411	742335	53.895106407494	0
411	742701	54.505	1
411	744126	54.51	22
411	745444	54.515	0
411	745961	54.52	0
411	746832	54.52553988684	0
411	747457	54.53053988684	0
411	748829	54.53553988684	0
411	749901	54.54053988684	0
411	750917	54.54553988684	0
411	752129	54.55053988684	0
411	753255	54.55553988684	0
411	753964	54.56053988684	0
411	755238	54.56553988684	0
411	756700	54.574248885586	0
411	757351	54.579248885586	0
411	757857	54.584248885586	0
411	758574	54.589248885586	0
411	759544	54.594248885586	0
411	760962	54.602539427978	0
411	761381	54.607539427978	0
411	762398	54.612539427978	0
411	763589	54.617539427978	0
411	764277	54.622539427978	0
411	765278	54.630307905769	0
411	766079	54.635307905769	0
411	766434	54.640307905769	0
411	767087	54.645307905769	0