version 2
run AODVScenario_1f-44-20121121-14:53:57-7316
attr configname AODVScenario_1f
attr datetime 20121121-14:53:57
attr experiment AODVScenario_1f
attr inifile AODV.ini
attr iterationvars $numNodes=94
attr iterationvars2 "$numNodes=94, $repetition=0"
attr measurement $numNodes=94
attr network csma802154net
attr numNodes 94
attr processid 7316
attr repetition 0
attr replication #0
attr resultdir results
attr runnumber 44
attr seedset 44

vector 387  csma802154net.dataCentricNetworkMan  RREQPacketFrequency  ETV
vector 388  csma802154net.dataCentricNetworkMan  RERRPacketFrequency  ETV
vector 389  csma802154net.dataCentricNetworkMan  DiscoveryPacketFrequency  ETV
vector 390  csma802154net.dataCentricNetworkMan  RegisterPacketFrequency  ETV
vector 391  csma802154net.dataCentricNetworkMan  RReplyPacketFrequency  ETV
vector 392  csma802154net.dataCentricNetworkMan  AODVDataPacketFrequency  ETV
vector 399  csma802154net.dataCentricNetworkMan  pendingRegistrationVector  ETV
vector 398  csma802154net.dataCentricNetworkMan  pendingRREQVector  ETV
vector 396  csma802154net.dataCentricNetworkMan  PendingDataPacketsVector  ETV
vector 411  csma802154net.fixhost[11].udpApp  "End-to-end delay"  ETV
vector 384  csma802154net.dataCentricNetworkMan  dataPacketE2EDelay  ETV
vector 409  csma802154net.fixhost[9].udpApp  "End-to-end delay"  ETV
vector 415  csma802154net.fixhost[15].udpApp  "End-to-end delay"  ETV
vector 422  csma802154net.fixhost[22].udpApp  "End-to-end delay"  ETV
vector 423  csma802154net.fixhost[23].udpApp  "End-to-end delay"  ETV
vector 424  csma802154net.fixhost[24].udpApp  "End-to-end delay"  ETV
vector 408  csma802154net.fixhost[8].udpApp  "End-to-end delay"  ETV
vector 413  csma802154net.fixhost[13].udpApp  "End-to-end delay"  ETV
vector 401  csma802154net.fixhost[1].udpApp  "End-to-end delay"  ETV
vector 404  csma802154net.fixhost[4].udpApp  "End-to-end delay"  ETV
vector 402  csma802154net.fixhost[2].udpApp  "End-to-end delay"  ETV
384	776019	70.075836053638	0.075836053638
384	776506	70.07896403507	0.07896403507
384	776985	70.08180407455	0.08180407455
384	780030	71.02608406517	0.02608406517
384	780512	71.028604094639	0.028604094639
384	781956	71.042212138445	0.042212138445
384	784034	72.019156059921	0.019156059921
384	785483	72.030524101421	0.030524101421
384	790052	73.037636073506	0.037636073506
384	790531	73.040116138588	0.040116138588
384	791491	73.045132106892	0.045132106892
384	908197	670.01471603507	0.01471603507
384	908681	670.038644053637	0.038644053637
384	909146	670.04276407455	0.04276407455
384	912183	671.02608406517	0.02608406517
384	913621	671.035004094639	0.035004094639
384	914113	671.042924138444	0.042924138444
384	916191	672.017236059921	0.017236059921
384	917640	672.031804101421	0.031804101421
384	920858	673.028036073506	0.028036073506
384	923134	673.068772138587	0.068772138587
384	924100	673.096900106892	0.096900106892
384	1040612	1270.011516035071	0.011516035071
384	1041091	1270.017844053638	0.017844053638
384	1041557	1270.023884074551	0.023884074551
384	1044121	1271.02199606517	0.02199606517
384	1045076	1271.032124094639	0.032124094639
384	1046517	1271.045164138445	0.045164138445
384	1049564	1272.025484059921	0.025484059921
384	1050048	1272.031804101421	0.031804101421
384	1053649	1273.028956106892	0.028956106892
384	1055108	1273.038764138588	0.038764138588
384	1056073	1273.075108073504	0.075108073504
384	1172871	1870.01087603507	0.01087603507
384	1173355	1870.034484053637	0.034484053637
384	1173820	1870.03796407455	0.03796407455
384	1176383	1871.019756065168	0.019756065168
384	1177339	1871.030204094637	0.030204094637
384	1178783	1871.044132138441	0.044132138441
384	1181339	1872.025164059921	0.025164059921
384	1182314	1872.03404410142	0.03404410142
384	1186884	1873.039052106889	0.039052106889
384	1188086	1873.049572138586	0.049572138586
384	1189055	1873.072372073504	0.072372073504
384	1305565	2470.011516035071	0.011516035071
384	1306043	2470.014324053638	0.014324053638
384	1306510	2470.021644074551	0.021644074551
384	1309073	2471.02263606517	0.02263606517
384	1310924	2471.052284094639	0.052284094639
384	1312372	2471.086372138445	0.086372138445
384	1314450	2472.017556059921	0.017556059921
384	1315899	2472.030204101421	0.030204101421
384	1319232	2473.028356073506	0.028356073506
384	1321646	2473.065612106891	0.065612106891
384	1322129	2473.071900138587	0.071900138587
384	1438625	3070.012156053638	0.012156053638
384	1439115	3070.016564035071	0.016564035071
384	1439590	3070.019084074551	0.019084074551
384	1442627	3071.025124065169	0.025124065169
384	1444276	3071.037236138445	0.037236138445
384	1445903	3071.086628094638	0.086628094638
384	1448006	3072.014676059921	0.014676059921
384	1450835	3072.076212101421	0.076212101421
384	1455027	3073.033044106891	0.033044106891
384	1455620	3073.036532073505	0.036532073505
384	1457075	3073.066780138587	0.066780138587
384	1573665	3670.012796053638	0.012796053638
384	1574134	3670.017556074551	0.017556074551
384	1574611	3670.01976403507	0.01976403507
384	1577670	3671.026404065169	0.026404065169
384	1579114	3671.034860094638	0.034860094638
384	1579605	3671.041892138443	0.041892138443
384	1581884	3672.015956059921	0.015956059921
384	1583337	3672.04940410142	0.04940410142
384	1586649	3673.027076073506	0.027076073506
384	1588091	3673.054804106892	0.054804106892
384	1589545	3673.067492138587	0.067492138587
384	1706041	4270.011516053637	0.011516053637
384	1706527	4270.014324035071	0.014324035071
384	1707007	4270.02004407455	0.02004407455
384	1710241	4271.044036094637	0.044036094637
384	1711205	4271.053532065166	0.053532065166
384	1712650	4271.069092138442	0.069092138442
384	1714727	4272.018516059919	0.018516059919
384	1716170	4272.029956101419	0.029956101419
384	1719736	4273.027076073504	0.027076073504
384	1721168	4273.03368410689	0.03368410689
384	1722146	4273.041004138586	0.041004138586
384	1838659	4870.011836035071	0.011836035071
384	1839138	4870.017204053638	0.017204053638
384	1839604	4870.024524074551	0.024524074551
384	1842832	4871.026436094638	0.026436094638
384	1844956	4871.079060065169	0.079060065169
384	1845932	4871.089820138443	0.089820138443
384	1848010	4872.017236059921	0.017236059921
384	1849458	4872.029244101421	0.029244101421
384	1853548	4873.027964073504	0.027964073504
384	1855030	4873.05466010689	0.05466010689
384	1856600	4873.088860138587	0.088860138587
384	1973190	5470.013436053637	0.013436053637
384	1973774	5470.01848403507	0.01848403507
384	1974352	5470.04340407455	0.04340407455
384	1977853	5471.030916094639	0.030916094639
384	1978347	5471.034012065169	0.034012065169
384	1979323	5471.043492138445	0.043492138445
384	1981401	5472.018196059921	0.018196059921
384	1982850	5472.030844101421	0.030844101421
384	1987912	5473.033324138588	0.033324138588
384	1988393	5473.036244106892	0.036244106892
384	1988869	5473.040300073505	0.040300073505
384	2105362	6070.014716053638	0.014716053638
384	2105849	6070.018484035071	0.018484035071
384	2106328	6070.02324407455	0.02324407455
384	2108896	6071.02711606517	0.02711606517
384	2111701	6071.088476094639	0.088476094639
384	2112187	6071.090460138445	0.090460138445
384	2115246	6072.02579610142	0.02579610142
384	2115713	6072.03021205992	0.03021205992
384	2119528	6073.029636073506	0.029636073506
384	2120491	6073.040332106892	0.040332106892
384	2122429	6073.063404138588	0.063404138588
384	2238942	6670.010556035071	0.010556035071
384	2239420	6670.013364053637	0.013364053637
384	2239887	6670.02100407455	0.02100407455
384	2242645	6671.020716065169	0.020716065169
384	2243605	6671.048764094638	0.048764094638
384	2245049	6671.059172138444	0.059172138444
384	2247128	6672.020756059921	0.020756059921
384	2248577	6672.035644101421	0.035644101421
384	2251889	6673.026756073504	0.026756073504
384	2254308	6673.060844138586	0.060844138586
384	2255494	6673.088900106889	0.088900106889
384	2372099	7270.011836035071	0.011836035071
384	2372572	7270.013756053638	0.013756053638
384	2373038	7270.017876074551	0.017876074551
384	2375602	7271.02295606517	0.02295606517
384	2376558	7271.032124094638	0.032124094638
384	2378002	7271.046692138445	0.046692138445
384	2380281	7272.01915605992	0.01915605992
384	2381734	7272.05196410142	0.05196410142
384	2385046	7273.026756073505	0.026756073505
384	2387691	7273.062052138586	0.062052138586
384	2388660	7273.085700106891	0.085700106891
387	854	1.005	1
387	1464	1.01	84
387	2474	1.015	61
387	4242	1.02	48
387	6747	1.025	42
387	8507	1.03	87
387	10271	1.035	54
387	12115	1.04	101
387	14063	1.045	83
387	15502	1.05	44
387	16618	1.055	84
387	17848	1.06	60
387	19014	1.065	78
387	19675	1.07	51
387	20978	1.075	68
387	21749	1.08	55
387	22718	1.085	74
387	23798	1.09	62
387	24786	1.095	56
387	25362	1.1	36
387	26159	1.105	65
387	26446	1.11	19
387	26760	1.115	25
387	26761	1.12	0
387	27264	1.141969068992	20
387	27633	1.146969068992	36
387	27634	1.151969068992	0
387	27946	1.16215297354	24
387	27947	1.16715297354	0
387	28314	1.218537068992	36
387	28424	1.223537068992	0
387	28608	1.230039889692	19
387	28609	1.235039889692	0
387	36782	43.505	1
387	37194	43.51	39
387	38634	43.515	0
387	40370	43.52	0
387	42067	43.527292743766	0
387	42977	43.532292743766	0
387	43765	43.537292743766	0
387	46564	43.549915172814	0
387	47688	43.554915172814	0
387	48926	43.559915172814	0
387	49852	43.564915172814	0
387	50952	43.569915172814	0
387	51970	43.574915172814	0
387	53345	43.583779194832	0
387	54446	43.588779194832	0
387	55475	43.593779194832	0
387	56455	43.598779194832	0
387	59163	43.614760228833	0
387	60601	43.619760228833	0
387	62668	43.627820384256	0
387	63571	43.632820384256	0
387	64742	43.637820384256	0
387	65734	43.642820384256	0
387	66714	43.647820384256	0
387	68717	43.656061595115	0
387	69536	43.661061595115	0
387	76470	43.698481184021	0
387	77134	43.703481184021	0
387	78362	43.709080925937	0
387	79072	43.714080925937	0
387	80071	43.719080925937	0
387	80966	43.724080925937	0
387	81781	43.729080925937	0
387	82645	43.734080925937	0
387	85443	43.747814912572	0
387	86253	43.752814912572	0
387	87362	43.757814912572	0
387	88384	43.762814912572	0
387	89796	43.767814912572	0
387	90668	43.772814912572	0
387	91655	43.777814912572	0
387	92442	43.782814912572	0
387	95962	43.80164323316	0
387	96747	43.80664323316	0
387	97538	43.81164323316	0
387	98622	43.81664323316	0
387	99499	43.82164323316	0
387	100179	43.82664323316	0
387	100971	43.833075496363	0
387	101629	43.838075496363	0
387	102524	43.843075496363	0
387	103319	43.848075496363	0
387	104229	43.853075496363	0
387	105021	43.858075496363	0
387	106326	43.863880613968	0
387	106746	43.868880613968	0
387	107533	43.873880613968	0
387	108357	43.879361218566	0
387	108921	43.884361218566	0
387	109624	43.889361218566	0
387	110278	43.894361218566	0
387	110617	43.899361218566	0
387	110959	43.904361218566	0
387	111631	43.909361218566	0
387	112442	43.914361218566	0
387	112995	43.919361218566	0
387	113347	43.924361218566	0
387	113799	43.929361218566	0
387	114362	43.93670713935	0
387	114720	43.94170713935	0
387	114721	43.94670713935	0
387	115627	43.969107599461	0
387	116073	43.974107599461	0
387	116724	44.003727396538	0
387	116725	44.008727396538	0
387	117180	44.023051619538	0
387	117181	44.028051619538	0
387	117194	44.505	1
387	117682	44.51	30
387	119545	44.515	0
387	120844	44.52	0
387	121840	44.525214063641	0
387	122610	44.530214063641	0
387	123086	44.535214063641	0
387	124312	44.540214063641	0
387	125317	44.545214063641	0
387	126198	44.550214063641	0
387	126920	44.555214063641	0
387	127592	44.560214063641	0
387	128599	44.565214063641	0
387	129617	44.571178918083	0
387	130428	44.576178918083	0
387	132291	44.58695886933	0
387	132961	44.59195886933	0
387	133879	44.59695886933	0
387	135552	44.60815007889	0
387	136374	44.61315007889	0
387	139840	44.634595172954	0
387	140623	44.639595172954	0
387	143182	44.652448988436	0
387	143972	44.657448988436	0
387	144737	44.662448988436	0
387	147166	44.680925725316	0
387	148385	44.685925725316	0
387	149184	44.690925725316	0
387	151418	44.707316529895	0
387	151966	44.712316529895	0
387	153083	44.718437178552	0
387	153627	44.723437178552	0
387	155725	44.737364547796	0
387	156492	44.742364547796	0
387	157376	44.747364547796	0
387	158396	44.752364547796	0
387	159392	44.757364547796	0
387	160055	44.762364547796	0
387	160832	44.767364547796	0
387	161727	44.772364547796	0
387	161954	44.777364547796	0
387	164349	44.792078611835	0
387	165172	44.797078611835	0
387	165842	44.802078611835	0
387	166492	44.807078611835	0
387	167187	44.814062712063	0
387	168071	44.819062712063	0
387	168285	44.824062712063	0
387	168505	44.829062712063	0
387	169751	44.843075325112	0
387	170949	44.848075325112	0
387	171486	44.853075325112	0
387	172293	44.85856613874	0
387	172760	44.86356613874	0
387	173221	44.86856613874	0
387	173679	44.87356613874	0
387	175145	44.883002224655	0
387	175486	44.888002224655	0
387	175487	44.893002224655	0
387	175929	44.904002809913	0
387	175930	44.909002809913	0
387	176384	44.930727269445	0
387	176385	44.935727269445	0
387	176581	45.505	1
387	176591	45.51	0
387	178308	45.517466045653	30
387	179781	45.522466045653	0
387	180930	45.527909847212	0
387	181805	45.532909847212	0
387	182711	45.537909847212	0
387	183565	45.542909847212	0
387	184697	45.548428853001	0
387	185356	45.553428853001	0
387	186609	45.559819104713	0
387	187507	45.564819104713	0
387	188197	45.569819104713	0
387	188762	45.574819104713	0
387	189989	45.579819104713	0
387	190804	45.584819104713	0
387	191482	45.589819104713	0
387	193173	45.60262896306	0
387	193425	45.60762896306	0
387	194222	45.61262896306	0
387	195138	45.61762896306	0
387	195931	45.62262896306	0
387	196582	45.62762896306	0
387	197802	45.634895096799	0
387	198681	45.639895096799	0
387	199611	45.644895096799	0
387	200437	45.649895096799	0
387	201122	45.654895096799	0
387	201909	45.659895096799	0
387	202671	45.664895096799	0
387	203666	45.671561434813	0
387	204343	45.676561434813	0
387	205371	45.681561434813	0
387	206139	45.686561434813	0
387	206576	45.691561434813	0
387	207608	45.697592031456	0
387	207935	45.702592031456	0
387	208508	45.708741919207	0
387	208955	45.713741919207	0
387	209182	45.718741919207	0
387	210115	45.726592657533	0
387	210959	45.731592657533	0
387	211524	45.736592657533	0
387	212326	45.741592657533	0
387	212430	45.746592657533	0
387	214007	45.763702289287	0
387	214816	45.768702289287	0
387	215813	45.777121262315	0
387	216038	45.782121262315	0
387	216849	45.793567600343	0
387	216954	45.798567600343	0
387	218654	45.811819914852	0
387	219195	45.816819914852	0
387	219544	45.821819914852	0
387	219648	45.826819914852	0
387	220106	45.833412637733	0
387	220452	45.838412637733	0
387	220459	45.843412637733	0
387	221340	45.913516657658	0
387	221341	45.918516657658	0
387	221546	46.505	1
387	222004	46.51	35
387	223765	46.515	0
387	225729	46.52	0
387	227162	46.525	0
387	228515	46.53	0
387	229606	46.535	0
387	230956	46.54	0
387	232533	46.545	0
387	233998	46.5518269874	0
387	234927	46.5568269874	0
387	236242	46.5618269874	0
387	237356	46.5668269874	0
387	239155	46.575301474838	0
387	240382	46.580301474838	0
387	241421	46.585301474838	0
387	244152	46.599872642181	0
387	246009	46.604872642181	0
387	247316	46.609872642181	0
387	249273	46.617510744854	0
387	250267	46.622510744854	0
387	251399	46.627510744854	0
387	252717	46.632510744854	0
387	253524	46.637510744854	0
387	255287	46.643729931511	0
387	256516	46.648729931511	0
387	257542	46.653729931511	0
387	258879	46.658729931511	0
387	259740	46.663729931511	0
387	261221	46.672611726225	0
387	262521	46.677611726225	0
387	263758	46.682611726225	0
387	264326	46.687611726225	0
387	268163	46.710874651067	0
387	269063	46.715874651067	0
387	271592	46.727857614935	0
387	272480	46.732857614935	0
387	273644	46.737857614935	0
387	274976	46.742857614935	0
387	276102	46.747857614935	0
387	277197	46.752857614935	0
387	279318	46.763629033089	0
387	280206	46.768629033089	0
387	281820	46.773629033089	0
387	282360	46.778629033089	0
387	283709	46.78574066604	0
387	284078	46.79074066604	0
387	285422	46.797038784137	0
387	285993	46.802038784137	0
387	286972	46.807038784137	0
387	289339	46.823107625695	0
387	289801	46.828107625695	0
387	290344	46.833107625695	0
387	292051	46.845741730456	0
387	292875	46.850741730456	0
387	293544	46.855741730456	0
387	294193	46.860741730456	0
387	294677	46.865741730456	0
387	294781	46.870741730456	0
387	295146	46.876025945272	0
387	295504	46.881025945272	0
387	296358	46.886025945272	0
387	296479	46.891025945272	0
387	296945	46.900813412172	0
387	296947	46.905813412172	0
387	297401	46.916307223255	0
387	297730	46.921307223255	0
387	298758	46.951881976203	0
387	298759	46.956881976203	0
387	299209	46.975940822154	0
387	299210	46.980940822154	0
387	300108	46.991274004986	0
387	300109	46.996274004986	0
387	300311	47.505	1
387	300836	47.51	35
387	302477	47.515	0
387	304277	47.52	0
387	305655	47.525	0
387	306956	47.53	0
387	307881	47.535	0
387	310152	47.543438181281	0
387	311076	47.548438181281	0
387	312308	47.55519944727	0
387	313384	47.56019944727	0
387	314199	47.56519944727	0
387	315561	47.57019944727	0
387	316923	47.57519944727	0
387	319542	47.590042494063	0
387	320687	47.595042494063	0
387	321954	47.600042494063	0
387	323101	47.605042494063	0
387	324659	47.610042494063	0
387	325899	47.615042494063	0
387	327019	47.620042494063	0
387	328363	47.625042494063	0
387	329242	47.630042494063	0
387	332901	47.650107917892	0
387	334104	47.655107917892	0
387	335209	47.660107917892	0
387	336560	47.665107917892	0
387	337556	47.670107917892	0
387	338231	47.675107917892	0
387	340361	47.68383374057	0
387	341142	47.68883374057	0
387	344051	47.702742388788	0
387	345100	47.707742388788	0
387	346244	47.712742388788	0
387	348129	47.719812377553	0
387	348932	47.724812377553	0
387	349886	47.729812377553	0
387	351457	47.735984681602	0
387	352498	47.740984681602	0
387	353164	47.745984681602	0
387	354411	47.752172391719	0
387	355316	47.757172391719	0
387	356307	47.762172391719	0
387	357303	47.767172391719	0
387	358683	47.774812617906	0
387	359510	47.779812617906	0
387	360629	47.784812617906	0
387	361759	47.789812617906	0
387	362441	47.794812617906	0
387	362988	47.800734355225	0
387	363470	47.805734355225	0
387	364144	47.810734355225	0
387	364695	47.815734355225	0
387	364930	47.820734355225	0
387	365618	47.826053046468	0
387	365734	47.831053046468	0
387	367059	47.846977774117	0
387	367163	47.851977774117	0
387	367532	47.858290939062	0
387	368008	47.863290939062	0
387	368451	47.868290939062	0
387	368460	47.892140846602	0
387	368894	47.897140846602	0
387	369336	47.902140846602	0
387	369337	47.907140846602	0
387	369642	48.505	1
387	370162	48.51	11
387	371462	48.515	0
387	372172	48.52	0
387	372654	48.526529355637	0
387	373335	48.531529355637	0
387	374084	48.536529355637	0
387	374727	48.541529355637	0
387	375627	48.550704999111	0
387	376138	48.555704999111	0
387	376700	48.561844339821	0
387	377512	48.566844339821	0
387	378268	48.571844339821	0
387	379150	48.577881391468	0
387	379910	48.582881391468	0
387	380994	48.587881391468	0
387	381102	48.592881391468	0
387	382305	48.601740920628	0
387	382892	48.606740920628	0
387	384008	48.611740920628	0
387	384456	48.616740920628	0
387	385990	48.634794131285	0
387	385994	48.639794131285	0
387	387180	48.659609022388	0
387	387505	48.664609022388	0
387	387506	48.669609022388	0
387	388079	48.684719153074	0
387	388941	48.689719153074	0
387	389288	48.694719153074	0
387	389289	48.699719153074	0
387	390594	48.775722161086	0
387	390595	48.780722161086	0
387	390830	49.505	1
387	390940	49.51	0
387	393079	49.516807101112	39
387	395535	49.521807101112	0
387	396992	49.526807101112	0
387	398471	49.531807101112	0
387	399267	49.536807101112	0
387	400831	49.541807101112	0
387	401987	49.546807101112	0
387	403875	49.553321145921	0
387	405379	49.558321145921	0
387	406949	49.563321145921	0
387	408021	49.568321145921	0
387	409184	49.573321145921	0
387	411328	49.580790041617	0
387	412697	49.585790041617	0
387	414168	49.590790041617	0
387	415406	49.595790041617	0
387	416779	49.600790041617	0
387	418100	49.605790041617	0
387	419403	49.612472990654	0
387	421185	49.617472990654	0
387	422554	49.622472990654	0
387	423680	49.627472990654	0
387	425548	49.636422802307	0
387	426935	49.641422802307	0
387	427946	49.646422802307	0
387	429335	49.651422802307	0
387	430399	49.656422802307	0
387	431407	49.661422802307	0
387	432404	49.666422802307	0
387	433564	49.671422802307	0
387	434887	49.676422802307	0
387	436354	49.681898796472	0
387	437037	49.686898796472	0
387	438967	49.699587326228	0
387	439894	49.704587326228	0
387	441050	49.709587326228	0
387	442192	49.714587326228	0
387	443142	49.719587326228	0
387	444236	49.724587326228	0
387	445613	49.729587326228	0
387	446732	49.734587326228	0
387	447747	49.740464279013	0
387	448551	49.745464279013	0
387	449677	49.750464279013	0
387	450800	49.755464279013	0
387	451901	49.760464279013	0
387	452485	49.765464279013	0
387	453419	49.770464279013	0
387	454811	49.775464279013	0
387	455854	49.780464279013	0
387	456674	49.785464279013	0
387	458321	49.798550828669	0
387	459187	49.803550828669	0
387	459967	49.808550828669	0
387	460749	49.813550828669	0
387	461779	49.820761001128	0
387	462499	49.825761001128	0
387	463525	49.830761001128	0
387	464353	49.835761001128	0
387	465389	49.840761001128	0
387	465862	49.845761001128	0
387	466323	49.850761001128	0
387	466786	49.855761001128	0
387	467244	49.860761001128	0
387	467348	49.865761001128	0
387	468584	49.872100925528	0
387	468822	49.877100925528	0
387	469773	49.885595015945	0
387	469774	49.890595015945	0
387	470687	49.907344310982	0
387	470691	49.912344310982	0
387	471264	49.94225479521	0
387	471620	49.94725479521	0
387	471621	49.95225479521	0
387	472082	49.975085620135	0
387	472083	49.980085620135	0
387	472309	50.505	1
387	472668	50.51	30
387	474079	50.515	0
387	475507	50.52	0
387	476678	50.525	0
387	477512	50.53	0
387	478434	50.535	0
387	479141	50.54	0
387	480702	50.548913473547	0
387	481729	50.553913473547	0
387	482637	50.558913473547	0
387	483462	50.563913473547	0
387	484619	50.570852956476	0
387	485441	50.575852956476	0
387	486917	50.583836967914	0
387	488267	50.588836967914	0
387	489441	50.593836967914	0
387	491056	50.604640962329	0
387	491990	50.609640962329	0
387	493056	50.614640962329	0
387	494094	50.619640962329	0
387	495196	50.624640962329	0
387	496940	50.635957959862	0
387	497541	50.640957959862	0
387	498254	50.645957959862	0
387	499779	50.650957959862	0
387	500651	50.655957959862	0
387	501816	50.661920452625	0
387	502726	50.666920452625	0
387	503436	50.671920452625	0
387	505458	50.679182539433	0
387	506329	50.684182539433	0
387	508599	50.700504687058	0
387	509532	50.705504687058	0
387	511322	50.715394071577	0
387	512349	50.720394071577	0
387	514700	50.731819991929	0
387	515949	50.736819991929	0
387	516935	50.741819991929	0
387	518489	50.747791931964	0
387	519401	50.752791931964	0
387	520442	50.757936990939	0
387	521152	50.762936990939	0
387	521942	50.767936990939	0
387	522817	50.772936990939	0
387	524696	50.779646011998	0
387	525754	50.784646011998	0
387	527925	50.796622212289	0
387	528643	50.801622212289	0
387	529768	50.806622212289	0
387	530466	50.811622212289	0
387	531618	50.817439987321	0
387	532644	50.822439987321	0
387	533443	50.827439987321	0
387	534247	50.832439987321	0
387	534251	50.837439987321	0
387	535438	50.850054570928	0
387	536233	50.855054570928	0
387	537044	50.860054570928	0
387	537048	50.865054570928	0
387	538412	50.891933210617	0
387	538516	50.896933210617	0
387	539337	50.909321501121	0
387	539338	50.914321501121	0
387	540038	51.505	1
387	540537	51.51	26
387	541979	51.515	0
387	543102	51.52	0
387	544087	51.525167943843	0
387	545013	51.530167943843	0
387	546267	51.535167943843	0
387	547690	51.540167943843	0
387	548957	51.545167943843	0
387	549549	51.550167943843	0
387	550701	51.557219115354	0
387	551535	51.562219115354	0
387	552230	51.567219115354	0
387	552466	51.572219115354	0
387	553605	51.577482885554	0
387	554530	51.582482885554	0
387	555208	51.587482885554	0
387	556033	51.593447965926	0
387	556918	51.598447965926	0
387	558094	51.608816546471	0
387	558560	51.613816546471	0
387	561722	51.631890693099	0
387	562504	51.636890693099	0
387	563935	51.64537896324	0
387	564633	51.65037896324	0
387	565568	51.65537896324	0
387	566583	51.66037896324	0
387	568239	51.674932970393	0
387	568703	51.679932970393	0
387	569715	51.684932970393	0
387	570491	51.689932970393	0
387	571749	51.698943036784	0
387	572208	51.703943036784	0
387	572924	51.708943036784	0
387	573839	51.713943036784	0
387	574752	51.718943036784	0
387	575440	51.723943036784	0
387	576581	51.728943036784	0
387	577047	51.733943036784	0
387	577765	51.741728852937	0
387	578571	51.746728852937	0
387	579498	51.753108125914	0
387	580418	51.758108125914	0
387	581198	51.763108125914	0
387	581787	51.768108125914	0
387	582650	51.773108125914	0
387	583566	51.778108125914	0
387	583672	51.783108125914	0
387	584460	51.789794018697	0
387	584461	51.794794018697	0
387	585395	51.815556987584	0
387	585849	51.820556987584	0
387	585850	51.825556987584	0
387	586304	51.842750228413	0
387	586768	51.847750228413	0
387	586775	51.852750228413	0
387	587232	51.859669588987	0
387	587233	51.864669588987	0
387	588179	51.885453611315	0
387	588646	51.890453611315	0
387	589113	51.895453611315	0
387	589344	52.505	1
387	589683	52.51	25
387	591016	52.515	0
387	592959	52.52	0
387	594217	52.525	0
387	595464	52.53	0
387	596310	52.535	0
387	597463	52.54	0
387	598608	52.545	0
387	599714	52.55	0
387	600730	52.555	0
387	601894	52.560088241343	0
387	602841	52.565088241343	0
387	604423	52.572792743762	0
387	605198	52.577792743762	0
387	605893	52.582792743762	0
387	607584	52.592909409064	0
387	608299	52.597909409064	0
387	609777	52.604869072204	0
387	610879	52.609869072204	0
387	612130	52.614869072204	0
387	613041	52.619869072204	0
387	613941	52.624869072204	0
387	615195	52.629869072204	0
387	617072	52.641234450164	0
387	617650	52.646234450164	0
387	619565	52.658309428082	0
387	620367	52.663309428082	0
387	621830	52.674407995749	0
387	622401	52.679407995749	0
387	623211	52.687679729282	0
387	624003	52.692679729282	0
387	624719	52.699110976557	0
387	625536	52.704110976557	0
387	626691	52.709110976557	0
387	627952	52.714110976557	0
387	628403	52.719110976557	0
387	629088	52.724138723158	0
387	630103	52.729138723158	0
387	632371	52.745303806436	0
387	632844	52.750303806436	0
387	633632	52.755303806436	0
387	634305	52.760303806436	0
387	634779	52.765303806436	0
387	635788	52.770303806436	0
387	636919	52.778566726462	0
387	637723	52.783566726462	0
387	638546	52.788566726462	0
387	639536	52.793566726462	0
387	640584	52.798566726462	0
387	641169	52.803566726462	0
387	641977	52.808566726462	0
387	642674	52.813566726462	0
387	643588	52.818566726462	0
387	643841	52.823566726462	0
387	645255	52.883165434677	0
387	645256	52.888165434677	0
387	645259	52.893267726228	0
387	645260	52.898267726228	0
387	645491	53.505	1
387	645601	53.51	0
387	647072	53.516515771598	28
387	648268	53.521515771598	0
387	650306	53.526515771598	0
387	651681	53.531515771598	0
387	652960	53.536515771598	0
387	654580	53.541515771598	0
387	655961	53.546515771598	0
387	656537	53.551515771598	0
387	658067	53.556515771598	0
387	658882	53.561515771598	0
387	660285	53.566515771598	0
387	661516	53.571515771598	0
387	663017	53.576515771598	0
387	664411	53.581515771598	0
387	665365	53.586515771598	0
387	666393	53.591515771598	0
387	667989	53.596515771598	0
387	669124	53.601515771598	0
387	669957	53.606515771598	0
387	671100	53.611515771598	0
387	672615	53.616515771598	0
387	673438	53.621515771598	0
387	674946	53.629067633278	0
387	675173	53.634067633278	0
387	676705	53.645321258742	0
387	677868	53.650321258742	0
387	678882	53.655321258742	0
387	679589	53.660321258742	0
387	680427	53.665321258742	0
387	681690	53.670321258742	0
387	682741	53.675321258742	0
387	683654	53.680321258742	0
387	684452	53.685321258742	0
387	684931	53.690321258742	0
387	685509	53.695321258742	0
387	689287	53.717463844274	0
387	690574	53.722463844274	0
387	692063	53.727463844274	0
387	692984	53.732463844274	0
387	693350	53.737463844274	0
387	694069	53.74680180174	0
387	694546	53.75180180174	0
387	695092	53.75680180174	0
387	696033	53.76295570645	0
387	696160	53.76795570645	0
387	697359	53.78114028708	0
387	697488	53.78614028708	0
387	699050	53.810334470727	0
387	699051	53.815334470727	0
387	700625	53.846512007631	0
387	700731	53.851512007631	0
387	701100	53.856512007631	0
387	701760	53.861512007631	0
387	701761	53.866512007631	0
387	702885	54.505	1
387	702895	54.51	0
387	704893	54.517150272105	30
387	706654	54.522150272105	0
387	708041	54.527150272105	0
387	709818	54.532150272105	0
387	711440	54.537150272105	0
387	712973	54.542150272105	0
387	714468	54.547150272105	0
387	715892	54.552150272105	0
387	717125	54.557150272105	0
387	718207	54.562150272105	0
387	719476	54.567150272105	0
387	720299	54.572150272105	0
387	721770	54.57926179469	0
387	722701	54.58426179469	0
387	723885	54.58926179469	0
387	725724	54.59426179469	0
387	726813	54.59926179469	0
387	727377	54.60426179469	0
387	728740	54.610764712762	0
387	729232	54.615764712762	0
387	729833	54.620764712762	0
387	730450	54.625764712762	0
387	731233	54.630764712762	0
387	738118	54.668389748065	0
387	739159	54.673389748065	0
387	740571	54.678589225619	0
387	742437	54.683589225619	0
387	743124	54.688589225619	0
387	745157	54.702697975762	0
387	745819	54.707697975762	0
387	746626	54.712697975762	0
387	747634	54.717697975762	0
387	748863	54.722697975762	0
387	749492	54.727697975762	0
387	750500	54.732697975762	0
387	751192	54.737697975762	0
387	752480	54.742697975762	0
387	753159	54.747697975762	0
387	753506	54.752697975762	0
387	754544	54.758630098123	0
387	755124	54.763630098123	0
387	756061	54.768630098123	0
387	758645	54.784064372652	0
387	759681	54.789064372652	0
387	760612	54.794064372652	0
387	761709	54.799064372652	0
387	762191	54.804064372652	0
387	762766	54.811748453804	0
387	763939	54.816748453804	0
387	765112	54.821748453804	0
387	766033	54.826748453804	0
387	766403	54.831748453804	0
387	766989	54.836748453804	0
387	767356	54.841748453804	0
387	767357	54.846748453804	0
387	768069	54.856673353667	0
387	768757	54.861673353667	0