file 282198 1353539971                                          
version 2
run AODVScenario_1f-57-20121121-14:58:30-6256
attr configname AODVScenario_1f
attr datetime 20121121-14:58:30
attr experiment AODVScenario_1f
attr inifile AODV.ini
attr iterationvars $numNodes=107
attr iterationvars2 "$numNodes=107, $repetition=0"
attr measurement $numNodes=107
attr network csma802154net
attr numNodes 107
attr processid 6256
attr repetition 0
attr replication #0
attr resultdir results
attr runnumber 57
attr seedset 57
vector 439  csma802154net.dataCentricNetworkMan  RREQPacketFrequency  ETV
439	7300 42930 855 3120979 1.005 7273.098108079044 1483 0 125 4029 285735
vector 440  csma802154net.dataCentricNetworkMan  RERRPacketFrequency  ETV
440	50230 42855 855 3120979 1.005 7273.098108079044 1483 0 0 0 0
vector 441  csma802154net.dataCentricNetworkMan  DiscoveryPacketFrequency  ETV
441	93085 42855 855 3120979 1.005 7273.098108079044 1483 0 0 0 0
vector 442  csma802154net.dataCentricNetworkMan  RegisterPacketFrequency  ETV
442	135940 42855 855 3120979 1.005 7273.098108079044 1483 0 1 12 12
vector 443  csma802154net.dataCentricNetworkMan  RReplyPacketFrequency  ETV
443	178795 42871 855 3120979 1.005 7273.098108079044 1483 0 130 1932 102950
vector 444  csma802154net.dataCentricNetworkMan  AODVDataPacketFrequency  ETV
444	221666 42874 855 3120979 1.005 7273.098108079044 1483 0 114 1517 78873
vector 451  csma802154net.dataCentricNetworkMan  pendingRegistrationVector  ETV
451	276356 497 45393 1283628 43.5 55.019481542726 21 0 4 45 123
vector 450  csma802154net.dataCentricNetworkMan  pendingRREQVector  ETV
450	274909 1447 45398 1216294 43.50001 54.773841364641 51 0 1 17 17
vector 445  csma802154net.dataCentricNetworkMan  AODVDataLineBreakVector  ETV
445	264540 30 732096 732096 50.729961402486 50.729961402486 1 1 1 1 1
vector 448  csma802154net.dataCentricNetworkMan  PendingDataPacketsVector  ETV
448	264570 10339 1306720 3120694 70 7273.088188092445 338 0 3 351 637
vector 454  csma802154net.fixhost[2].udpApp  "End-to-end delay"  ETV
454	276853 595 1308203 3103055 70.010556039738 7270.012476039739 13 0.010556039738 0.019124039739 0.187748516604 0.0028091728897812
vector 436  csma802154net.dataCentricNetworkMan  dataPacketE2EDelay  ETV
436	1955 5345 1308203 3120694 70.010556039738 7273.088188092445 117 0.010556039738 0.157980113328 4.717742213753 0.27776875698464
vector 456  csma802154net.fixhost[4].udpApp  "End-to-end delay"  ETV
456	277448 595 1308721 3103574 70.014004051459 7270.017524051458 13 0.011516051459 0.042732051459 0.274428668965 0.0074495736675401
vector 472  csma802154net.fixhost[20].udpApp  "End-to-end delay"  ETV
472	280415 593 1311688 3106761 71.024236064162 7271.02519606416 13 0.019756064162 0.030244064162 0.3132528341 0.0076739655255074
vector 473  csma802154net.fixhost[21].udpApp  "End-to-end delay"  ETV
473	281008 595 1312751 3108050 71.035324093209 7271.053244093207 13 0.027716093209 0.074292093209 0.581877211709 0.028828358919532
vector 478  csma802154net.fixhost[26].udpApp  "End-to-end delay"  ETV
478	281603 595 1313874 3109177 71.042252122858 7271.081292122856 13 0.028316122858 0.105148122856 0.685885597141 0.042071018659212
vector 471  csma802154net.fixhost[19].udpApp  "End-to-end delay"  ETV
471	279820 595 1316912 3112214 72.025836071196 7272.021036071195 13 0.020716071196 0.025836071196 0.29426892554 0.0066967275491064
vector 457  csma802154net.fixhost[5].udpApp  "End-to-end delay"  ETV
457	278043 595 1321810 3120694 73.125204092447 7273.088188092445 13 0.028636092447 0.125204092447 0.661925201811 0.04335195478572
vector 462  csma802154net.fixhost[10].udpApp  "End-to-end delay"  ETV
462	279233 587 1323776 3117078 73.15044413728 7273.033716137279 13 0.033716137279 0.15044413728 0.905061784621 0.074526047866767
vector 460  csma802154net.fixhost[8].udpApp  "End-to-end delay"  ETV
460	278638 595 1324945 3118244 73.157980113328 7273.040684113328 13 0.031796113328 0.157980113328 0.813293473262 0.064361937121475
