version 2
run AODVScenario_1f-17-20121121-14:46:45-704
attr configname AODVScenario_1f
attr datetime 20121121-14:46:45
attr experiment AODVScenario_1f
attr inifile AODV.ini
attr iterationvars $numNodes=67
attr iterationvars2 "$numNodes=67, $repetition=0"
attr measurement $numNodes=67
attr network csma802154net
attr numNodes 67
attr processid 704
attr repetition 0
attr replication #0
attr resultdir results
attr runnumber 17
attr seedset 17

vector 279  csma802154net.dataCentricNetworkMan  RREQPacketFrequency  ETV
vector 280  csma802154net.dataCentricNetworkMan  RERRPacketFrequency  ETV
vector 281  csma802154net.dataCentricNetworkMan  DiscoveryPacketFrequency  ETV
vector 282  csma802154net.dataCentricNetworkMan  RegisterPacketFrequency  ETV
vector 283  csma802154net.dataCentricNetworkMan  RReplyPacketFrequency  ETV
vector 284  csma802154net.dataCentricNetworkMan  AODVDataPacketFrequency  ETV
vector 291  csma802154net.dataCentricNetworkMan  pendingRegistrationVector  ETV
vector 290  csma802154net.dataCentricNetworkMan  pendingRREQVector  ETV
vector 285  csma802154net.dataCentricNetworkMan  AODVDataLineBreakVector  ETV
vector 288  csma802154net.dataCentricNetworkMan  PendingDataPacketsVector  ETV
vector 293  csma802154net.fixhost[1].udpApp  "End-to-end delay"  ETV
vector 276  csma802154net.dataCentricNetworkMan  dataPacketE2EDelay  ETV
vector 297  csma802154net.fixhost[5].udpApp  "End-to-end delay"  ETV
vector 296  csma802154net.fixhost[4].udpApp  "End-to-end delay"  ETV
vector 308  csma802154net.fixhost[16].udpApp  "End-to-end delay"  ETV
vector 314  csma802154net.fixhost[22].udpApp  "End-to-end delay"  ETV
vector 311  csma802154net.fixhost[19].udpApp  "End-to-end delay"  ETV
vector 301  csma802154net.fixhost[9].udpApp  "End-to-end delay"  ETV
vector 298  csma802154net.fixhost[6].udpApp  "End-to-end delay"  ETV
vector 305  csma802154net.fixhost[13].udpApp  "End-to-end delay"  ETV
vector 300  csma802154net.fixhost[8].udpApp  "End-to-end delay"  ETV
vector 302  csma802154net.fixhost[10].udpApp  "End-to-end delay"  ETV
vector 303  csma802154net.fixhost[11].udpApp  "End-to-end delay"  ETV
276	448376	70.008996024418	0.008996024418
276	449036	70.016916071508	0.016916071508
276	449378	70.022036060992	0.022036060992
276	452045	71.03251608297	0.03251608297
276	453145	71.043564123661	0.043564123661
276	453486	71.056372088451	0.056372088451
276	456680	72.031156113924	0.031156113924
276	457367	72.051604098721	0.051604098721
276	458389	72.06560414693	0.06560414693
276	461658	73.034996107262	0.034996107262
276	463369	73.046404128072	0.046404128072
276	464071	73.053404149752	0.053404149752
276	546775	670.008036024418	0.008036024418
276	547442	670.016596071508	0.016596071508
276	547780	670.019084060993	0.019084060993
276	550133	671.026436088452	0.026436088452
276	550827	671.03212408297	0.03212408297
276	551852	671.058924123662	0.058924123662
276	554129	672.023876074824	0.023876074824
276	555588	672.057292098192	0.057292098192
276	556592	672.068380124334	0.068380124334
276	559685	673.034996107261	0.034996107261
276	561227	673.068732128073	0.068732128073
276	562603	673.104068149752	0.104068149752
276	645307	1270.007396024418	0.007396024418
276	645977	1270.014676060993	0.014676060993
276	646314	1270.019724071508	0.019724071508
276	649194	1271.02803608297	0.02803608297
276	649889	1271.034036123662	0.034036123662
276	650732	1271.062380088452	0.062380088452
276	653613	1272.03499612262	0.03499612262
276	654320	1272.046084137822	0.046084137822
276	654998	1272.056852162662	0.056852162662
276	658598	1273.03399613116	0.03399613116
276	659729	1273.047644151971	0.047644151971
276	660694	1273.057132180484	0.057132180484
276	743466	1870.011236024417	0.011236024417
276	744132	1870.019796071507	0.019796071507
276	744471	1870.021964060992	0.021964060992
276	747336	1871.02675608297	0.02675608297
276	747664	1871.028036088452	0.028036088452
276	748369	1871.036204123661	0.036204123661
276	750716	1872.025156074824	0.025156074824
276	751830	1872.056404098192	0.056404098192
276	752916	1872.093340124333	0.093340124333
276	755996	1873.033716107259	0.033716107259
276	757784	1873.064644128069	0.064644128069
276	758750	1873.075124156583	0.075124156583
276	841802	2470.010596024418	0.010596024418
276	842612	2470.019476060993	0.019476060993
276	842954	2470.043084071508	0.043084071508
276	845492	2471.022916082969	0.022916082969
276	845835	2471.02732408845	0.02732408845
276	846866	2471.03748412366	0.03748412366
276	849072	2472.024516074824	0.024516074824
276	850438	2472.04196412209	0.04196412209
276	851117	2472.04889214693	0.04889214693
276	854556	2473.036596107261	0.036596107261
276	856609	2473.073212128072	0.073212128072
276	857314	2473.080140149753	0.080140149753
276	940019	3070.010596024418	0.010596024418
276	940688	3070.019156060993	0.019156060993
276	941020	3070.021076071507	0.021076071507
276	943563	3071.02611608297	0.02611608297
276	943899	3071.028924088452	0.028924088452
276	944934	3071.040684123661	0.040684123661
276	948139	3072.031444098192	0.031444098192
276	948829	3072.037812074824	0.037812074824
276	949168	3072.040292124332	0.040292124332
276	952772	3073.042596155058	0.042596155058
276	954156	3073.054076182702	0.054076182702
276	954864	3073.061716211216	0.061716211216
276	1037635	3670.008996024418	0.008996024418
276	1038299	3670.017556071508	0.017556071508
276	1038641	3670.021644060992	0.021644060992
276	1041181	3671.024836082968	0.024836082968
276	1042356	3671.03876412366	0.03876412366
276	1043025	3671.058220088451	0.058220088451
276	1045721	3672.026076098721	0.026076098721
276	1046423	3672.033004113922	0.033004113922
276	1047432	3672.059492124333	0.059492124333
276	1051201	3673.053156155057	0.053156155057
276	1053181	3673.105772182702	0.105772182702
276	1054148	3673.114620211216	0.114620211216
276	1136852	4270.006756024418	0.006756024418
276	1137516	4270.017556071507	0.017556071507
276	1137858	4270.023564060991	0.023564060991
276	1140159	4271.024836082968	0.024836082968
276	1140748	4271.031164088451	0.031164088451
276	1141782	4271.04445212366	0.04445212366
276	1144792	4272.037876122618	0.037876122618
276	1145914	4272.070012137819	0.070012137819
276	1146327	4272.09429216266	0.09429216266
276	1149928	4273.042596155054	0.042596155054
276	1150983	4273.055036182699	0.055036182699
276	1152027	4273.068364211214	0.068364211214
276	1234731	4870.007716024418	0.007716024418
276	1235395	4870.016276071508	0.016276071508
276	1235737	4870.021964060993	0.021964060993
276	1238298	4871.03020408297	0.03020408297
276	1238778	4871.033084088452	0.033084088452
276	1239817	4871.068132123662	0.068132123662
276	1242162	4872.026116074824	0.026116074824
276	1243535	4872.06244412209	0.06244412209
276	1244212	4872.07161214693	0.07161214693
276	1247816	4873.040996155057	0.040996155057
276	1249039	4873.054076182702	0.054076182702
276	1249905	4873.064204211215	0.064204211215
276	1332676	5470.007716024418	0.007716024418
276	1333347	5470.016596060993	0.016596060993
276	1333684	5470.021964071508	0.021964071508
276	1336214	5471.025796088451	0.025796088451
276	1336561	5471.02803608297	0.02803608297
276	1337585	5471.040044123661	0.040044123661
276	1339928	5472.026116074823	0.026116074823
276	1341109	5472.055444098191	0.055444098191
276	1342118	5472.081892124334	0.081892124334
276	1345463	5473.034676107261	0.034676107261
276	1346928	5473.069372128072	0.069372128072
276	1348473	5473.097420156586	0.097420156586
276	1431501	6070.008356024418	0.008356024418
276	1432172	6070.016916060993	0.016916060993
276	1432509	6070.022924071508	0.022924071508
276	1435058	6071.02803608297	0.02803608297
276	1435398	6071.031164088452	0.031164088452
276	1436429	6071.040364123662	0.040364123662
276	1438707	6072.028356074823	0.028356074823
276	1440304	6072.06465209819	0.06465209819
276	1441314	6072.094620124332	0.094620124332
276	1444408	6073.034676107261	0.034676107261
276	1446454	6073.068092128071	0.068092128071
276	1447322	6073.09838014975	0.09838014975
276	1530026	6670.007716024418	0.007716024418
276	1530690	6670.016596071507	0.016596071507
276	1531032	6670.021964060992	0.021964060992
276	1533885	6671.02451608297	0.02451608297
276	1534904	6671.056364123662	0.056364123662
276	1535244	6671.06710808845	0.06710808845
276	1538118	6672.035956122619	0.035956122619
276	1538824	6672.043916137821	0.043916137821
276	1539502	6672.052124162661	0.052124162661
276	1542592	6673.038196107261	0.038196107261
276	1544456	6673.067204128071	0.067204128071
276	1545832	6673.096212149752	0.096212149752
276	1628603	7270.007396024418	0.007396024418
276	1629262	7270.014356071507	0.014356071507
276	1629605	7270.023316060993	0.023316060993
276	1632168	7271.028604088451	0.028604088451
276	1632830	7271.03116408297	0.03116408297
276	1633526	7271.038764123661	0.038764123661
276	1636140	7272.02863609872	0.02863609872
276	1636917	7272.041004113922	0.041004113922
276	1638273	7272.066852124333	0.066852124333
276	1641366	7273.032756107262	0.032756107262
276	1643083	7273.065852128072	0.065852128072
276	1644124	7273.075340149751	0.075340149751
279	538	1.005	1
279	726	1.01	14
279	1168	1.015	37
279	1436	1.02	13
279	2060	1.025	33
279	3307	1.03	79
279	4471	1.035	64
279	5738	1.04	70
279	6993	1.045	38
279	7834	1.05	51
279	8674	1.055	49
279	9484	1.06	67
279	10185	1.065	33
279	10951	1.07	51
279	11576	1.075	39
279	12174	1.08	35
279	12712	1.085	39
279	13022	1.09	18
279	13389	1.095	32
279	13393	1.1	0
279	13860	1.108178559273	39
279	14068	1.113178559273	14
279	14069	1.118178559273	0
279	14498	1.130588270304	27
279	14911	1.135588270304	22
279	14972	1.140588270304	18
279	15192	1.145588270304	17
279	15193	1.150588270304	0
279	15406	1.159059150083	15
279	15407	1.164059150083	0
279	15655	1.206142416069	22
279	15656	1.211142416069	0
279	21489	43.505	1
279	21824	43.51	20
279	22798	43.515	0
279	23364	43.52	0
279	24754	43.534586155509	0
279	25553	43.539586155509	0
279	26041	43.544586155509	0
279	26892	43.549586155509	0
279	27436	43.554586155509	0
279	27814	43.559586155509	0
279	28621	43.566997948513	0
279	29173	43.571997948513	0
279	29813	43.577669972581	0
279	30432	43.582669972581	0
279	32360	43.607086574845	0
279	33016	43.612086574845	0
279	33571	43.617675466158	0
279	34043	43.622675466158	0
279	34433	43.627675466158	0
279	34918	43.633882505231	0
279	35408	43.638882505231	0
279	36019	43.643882505231	0
279	36731	43.649268702121	0
279	37034	43.654268702121	0
279	37869	43.661325127186	0
279	38508	43.666325127186	0
279	39275	43.671325127186	0
279	39821	43.676325127186	0
279	41011	43.688655347719	0
279	41454	43.693655347719	0
279	41984	43.699926562921	0
279	42602	43.704926562921	0
279	43305	43.714949148326	0
279	43613	43.719949148326	0
279	44300	43.728529877301	0
279	45196	43.733529877301	0
279	46357	43.748679366885	0
279	46839	43.753679366885	0
279	47244	43.758679366885	0
279	47861	43.766480383643	0
279	48155	43.771480383643	0
279	48156	43.776480383643	0
279	48642	43.791571888405	0
279	49114	43.796571888405	0
279	49424	43.801571888405	0
279	49425	43.806571888405	0
279	49573	44.505	1
279	49932	44.51	24
279	51000	44.515	0
279	52101	44.52	0
279	52661	44.525	0
279	53368	44.53	0
279	53782	44.535	0
279	54648	44.54	0
279	55132	44.545	0
279	56182	44.55343111843	0
279	56861	44.55843111843	0
279	57647	44.563506247261	0
279	58134	44.568506247261	0
279	59061	44.573506247261	0
279	59777	44.578506247261	0
279	60503	44.583506247261	0
279	61139	44.588506247261	0
279	62247	44.598039242458	0
279	62950	44.603039242458	0
279	63492	44.608039242458	0
279	64040	44.613039242458	0
279	64828	44.618299995904	0
279	65469	44.623299995904	0
279	65972	44.628299995904	0
279	66554	44.633299995904	0
279	67740	44.644364614368	0
279	68124	44.649364614368	0
279	69772	44.667396452896	0
279	70377	44.672396452896	0
279	70707	44.677396452896	0
279	71656	44.682396452896	0
279	72138	44.687396452896	0
279	72744	44.692396452896	0
279	73226	44.697396452896	0
279	73816	44.702396452896	0
279	74219	44.707396452896	0
279	75075	44.712396452896	0
279	75467	44.717396452896	0
279	75713	44.722396452896	0
279	75717	44.727396452896	0
279	76282	44.735346563335	0
279	76358	44.740346563335	0
279	76679	44.747226583839	0
279	76680	44.752226583839	0
279	77007	44.76502233964	0
279	77319	44.77002233964	0
279	77320	44.77502233964	0
279	77801	44.833916464001	0
279	77947	44.838916464001	0
279	78089	45.505	1
279	78096	45.51	0
279	79165	45.520535864456	24
279	80270	45.525535864456	0
279	80938	45.530535864456	0
279	81487	45.535535864456	0
279	81801	45.540535864456	0
279	82544	45.547212705634	0
279	83127	45.552212705634	0
279	83766	45.557212705634	0
279	84440	45.562212705634	0
279	85185	45.567212705634	0
279	85965	45.572212705634	0
279	86501	45.577212705634	0
279	87182	45.582425280511	0
279	87813	45.587425280511	0
279	89150	45.597390223338	0
279	89853	45.602390223338	0
279	90399	45.607390223338	0
279	90957	45.612390223338	0
279	91596	45.617390223338	0
279	92234	45.622390223338	0
279	92819	45.627390223338	0
279	94421	45.640255999031	0
279	95054	45.645255999031	0
279	95604	45.650255999031	0
279	96241	45.655255999031	0
279	97742	45.671209899304	0
279	98071	45.676209899304	0
279	99085	45.686159649598	0
279	99702	45.691159649598	0
279	100280	45.696159649598	0
279	100776	45.701159649598	0
279	101493	45.706159649598	0
279	102072	45.711159649598	0
279	102710	45.716159649598	0
279	103018	45.72137780792	0
279	103185	45.72637780792	0
279	103727	45.73137780792	0
279	104205	45.737603763718	0
279	104763	45.742603763718	0
279	105659	45.75393280215	0
279	106065	45.75893280215	0
279	106553	45.76393280215	0
279	107220	45.76893280215	0
279	107768	45.77393280215	0
279	108456	45.784513028524	0
279	108458	45.789513028524	0
279	109891	45.810051706933	0
279	109892	45.815051706933	0
279	110210	45.820817817676	0
279	110444	45.825817817676	0
279	110536	45.830817817676	0
279	111095	45.83787198983	0
279	111415	45.84287198983	0
279	112132	45.8935692545	0
279	112133	45.8985692545	0
279	112275	46.505	1
279	112582	46.51	18
279	113330	46.515	0
279	114124	46.52	0
279	115178	46.525	0
279	115974	46.53	0
279	116778	46.535	0
279	117190	46.54	0
279	117856	46.547238632225	0
279	118504	46.552238632225	0
279	119226	46.557238632225	0
279	119789	46.562238632225	0
279	120442	46.568688440493	0
279	120924	46.573688440493	0
279	121502	46.578688440493	0
279	121893	46.583688440493	0
279	122550	46.588688440493	0
279	123262	46.593688440493	0
279	124533	46.602472460322	0
279	125022	46.607472460322	0
279	125194	46.612472460322	0
279	125984	46.617472460322	0
279	126473	46.622472460322	0
279	127945	46.642354982598	0
279	128434	46.647354982598	0
279	130354	46.663205565191	0
279	131006	46.668205565191	0
279	131582	46.673205565191	0
279	132227	46.678205565191	0
279	132870	46.683205565191	0
279	133820	46.691893575899	0
279	134310	46.696893575899	0
279	134963	46.70256816728	0
279	135619	46.70756816728	0
279	136183	46.71256816728	0
279	136583	46.71756816728	0
279	136906	46.72256816728	0
279	137149	46.72756816728	0
279	137227	46.73256816728	0
279	138130	46.750325577045	0
279	138131	46.755325577045	0
279	138461	46.764782656119	0
279	138462	46.769782656119	0
279	138786	46.788985063873	0
279	138787	46.793985063873	0
279	139106	46.816369081914	0
279	139107	46.821369081914	0
279	139249	47.505	1
279	139262	47.51	0
279	140699	47.516947667769	30
279	141917	47.521947667769	0
279	142870	47.526947667769	0
279	143918	47.533716371096	0
279	144534	47.538716371096	0
279	145513	47.543716371096	0
279	146287	47.548716371096	0
279	147027	47.553716371096	0
279	148451	47.561929371279	0
279	149341	47.566929371279	0
279	149917	47.571929371279	0
279	150655	47.577804178419	0
279	151254	47.582804178419	0
279	152252	47.587804178419	0
279	152789	47.592804178419	0
279	153369	47.597804178419	0
279	155419	47.611659691311	0
279	156025	47.616659691311	0
279	156676	47.621659691311	0
279	160846	47.655306580249	0
279	161324	47.660306580249	0
279	162209	47.668404119571	0
279	162940	47.673404119571	0
279	163615	47.678404119571	0
279	164436	47.683404119571	0
279	165464	47.68904791755	0
279	166099	47.69404791755	0
279	166755	47.69904791755	0
279	167246	47.70404791755	0
279	168276	47.70904791755	0
279	169213	47.71404791755	0
279	169810	47.71904791755	0
279	170292	47.72404791755	0
279	171695	47.735689166093	0
279	172100	47.740689166093	0
279	172950	47.747563623624	0
279	173570	47.752563623624	0
279	174388	47.758191384099	0
279	174810	47.763191384099	0
279	175060	47.768191384099	0
279	175868	47.776076234292	0
279	176351	47.781076234292	0
279	177175	47.793821633552	0
279	177765	47.798821633552	0
279	178403	47.803821633552	0
279	178714	47.808821633552	0
279	180257	47.828645645715	0
279	180950	47.833645645715	0
279	182979	47.861567688083	0
279	183061	47.866567688083	0
279	183951	47.883649123292	0
279	183953	47.888649123292	0
279	184765	47.923029887204	0
279	184766	47.928029887204	0
279	185322	47.943694716717	0
279	185419	47.948694716717	0
279	185561	48.505	1
279	185568	48.51	0
279	186644	48.519792720143	22
279	187731	48.524792720143	0
279	188803	48.529792720143	0
279	189589	48.534792720143	0
279	189931	48.539989991444	0
279	190838	48.544989991444	0
279	191916	48.549989991444	0
279	192569	48.554989991444	0
279	193500	48.56122755299	0
279	194820	48.56622755299	0
279	195304	48.57122755299	0
279	195927	48.57622755299	0
279	196629	48.58122755299	0
279	197510	48.58622755299	0
279	198750	48.593788821813	0
279	199554	48.598788821813	0
279	199955	48.603788821813	0
279	201116	48.613053248886	0
279	201627	48.618053248886	0
279	202185	48.623053248886	0
279	202837	48.628053248886	0
279	203350	48.633053248886	0
279	204019	48.63806281564	0
279	204596	48.64306281564	0
279	204944	48.64806281564	0
279	205287	48.65306281564	0
279	206356	48.659987575033	0
279	206837	48.664987575033	0
279	207582	48.671185318326	0
279	208166	48.676185318326	0
279	208837	48.681185318326	0
279	209506	48.686185318326	0
279	210155	48.691185318326	0
279	210636	48.696185318326	0
279	211442	48.701185318326	0
279	212100	48.706185318326	0
279	212807	48.711185318326	0
279	213146	48.716185318326	0
279	213556	48.721185318326	0
279	214592	48.730494028061	0
279	214674	48.735494028061	0
279	216903	48.757423408861	0
279	216985	48.762423408861	0
279	217580	48.768021800693	0
279	217912	48.773021800693	0
279	218307	48.778021800693	0
279	218640	48.783021800693	0
279	218900	48.788021800693	0
279	219315	48.801665009596	0
279	219914	48.806665009596	0
279	219915	48.811665009596	0
279	220077	49.505	1
279	220160	49.51	0
279	221213	49.516516398858	21
279	222441	49.521516398858	0
279	223231	49.526516398858	0
279	223984	49.531516398858	0
279	224731	49.536516398858	0
279	225239	49.541516398858	0
279	226676	49.549860859474	0
279	227407	49.554860859474	0
279	228420	49.559879853302	0
279	229409	49.564879853302	0
279	229994	49.569879853302	0
279	230676	49.574879853302	0
279	231193	49.579879853302	0
279	232102	49.589734895811	0
279	232520	49.594734895811	0
279	233353	49.600337056762	0
279	233846	49.605337056762	0
279	234426	49.611552459768	0
279	234764	49.616552459768	0
279	235400	49.621552459768	0
279	237114	49.635729840708	0
279	237216	49.640729840708	0
279	237557	49.645729840708	0
279	238083	49.650729840708	0
279	238483	49.655729840708	0
279	240952	49.68286949797	0
279	241550	49.68786949797	0
279	242966	49.706514063804	0
279	243701	49.711514063804	0
279	244218	49.716514063804	0
279	244693	49.721514063804	0
279	245432	49.733900913235	0
279	245714	49.738900913235	0
279	246128	49.743900913235	0
279	246873	49.749018086196	0
279	247061	49.754018086196	0
279	247467	49.759018086196	0
279	248226	49.764018086196	0
279	248652	49.769018086196	0
279	249069	49.774018086196	0
279	249224	49.779018086196	0
279	249811	49.788734901137	0
279	250151	49.793734901137	0
279	250834	49.805746874642	0
279	251335	49.810746874642	0
279	251767	49.822772016879	0
279	251768	49.827772016879	0
279	252103	49.836646774608	0
279	252104	49.841646774608	0
279	252433	49.851958916503	0
279	252434	49.856958916503	0
279	253095	49.869422941732	0
279	253414	49.874422941732	0
279	253580	50.505	1
279	253587	50.51	0
279	254609	50.518459109062	21
279	255620	50.523459109062	0
279	256224	50.528459109062	0
279	257166	50.533459109062	10
279	257773	50.538459109062	31
279	259373	50.543459109062	24
279	261165	50.548459109062	43
279	262456	50.553459109062	11
279	263826	50.558459109062	21
279	264920	50.563459109062	44
279	266178	50.568459109062	27
279	267271	50.573459109062	29
279	268267	50.578459109062	21
279	269253	50.583459109062	16
279	270240	50.588459109062	33
279	270920	50.593459109062	6
279	271743	50.598459109062	24
279	272412	50.603459109062	0
279	273788	50.611103816256	39
279	274140	50.616103816256	0
279	274871	50.621103816256	19
279	275627	50.626103816256	0
279	277467	50.637989238004	9
279	277955	50.642989238004	0
279	278755	50.649883373014	0
279	279269	50.654883373014	0
279	280666	50.665293671009	0
279	281017	50.670293671009	0
279	282072	50.675293671009	0
279	282568	50.680293671009	0
279	283079	50.685293671009	0
279	283894	50.690293671009	0
279	284547	50.695293671009	0
279	285017	50.700299936014	0
279	285437	50.705299936014	0
279	286099	50.711276971816	0
279	286773	50.716276971816	0
279	287351	50.721276971816	0
279	287765	50.726276971816	0
279	288595	50.731276971816	0
279	289072	50.736276971816	0
279	289885	50.741276971816	0
279	290205	50.746276971816	0
279	290546	50.752787153924	0
279	290808	50.757787153924	0
279	291140	50.762787153924	0
279	291141	50.767787153924	0
279	291803	50.776208564866	0
279	291804	50.781208564866	0
279	292473	50.835588682732	0
279	292474	50.840588682732	0
279	292649	51.505	1
279	293215	51.51	29
279	294496	51.515	0
279	295589	51.52	0
279	297033	51.52681092473	0
279	297808	51.53181092473	0
279	298911	51.53681092473	0
279	300166	51.54181092473	0
279	300963	51.54681092473	0
279	302461	51.555401450922	0
279	303153	51.560401450922	0
279	303975	51.565401450922	0
279	304739	51.570401450922	0
279	305418	51.575401450922	0
279	306151	51.580401450922	0
279	306926	51.585401450922	0
279	307930	51.590401450922	0
279	308867	51.595401450922	0
279	309376	51.600401450922	0
279	310421	51.610021770347	0
279	311118	51.615021770347	0
279	311721	51.620021770347	0
279	313157	51.631584983449	0
279	313769	51.636584983449	0
279	314492	51.641584983449	0
279	315008	51.646584983449	0
279	315519	51.651584983449	0
279	316591	51.658825704438	0
279	317021	51.663825704438	0
279	318026	51.672400043154	0
279	318625	51.677400043154	0
279	319200	51.682400043154	0
279	320109	51.689276941815	0
279	320797	51.694276941815	0
279	321671	51.699276941815	0
279	322499	51.704276941815	0
279	323408	51.709276941815	0
279	323676	51.714276941815	0
279	324690	51.724036270011	0
279	325349	51.729036270011	0
279	326102	51.734036270011	0
279	326715	51.739036270011	0
279	327397	51.744036270011	0
279	328079	51.749036270011	0
279	328846	51.75470409724	0
279	329609	51.75970409724	0
279	330301	51.76470409724	0
279	331148	51.76970409724	0
279	331812	51.77470409724	0
279	332909	51.783826298436	0
279	332990	51.788826298436	0
279	333484	51.794907723385	0
279	333915	51.799907723385	0
279	334173	51.804907723385	0
279	334759	51.809907723385	0
279	335255	51.814907723385	0
279	335429	51.819907723385	0
279	335858	51.830593790941	0
279	336445	51.835593790941	0
279	336528	51.840593790941	0
279	337133	51.846341223316	0
279	337491	51.851341223316	0
279	337492	51.856341223316	0
279	338351	51.895880140684	0
279	338352	51.900880140684	0
279	338518	52.505	1
279	338853	52.51	23
279	339860	52.515	0
279	340459	52.52	0
279	341411	52.525206519025	0
279	342570	52.530206519025	0
279	343531	52.535206519025	0
279	344600	52.540206519025	0
279	345411	52.545206519025	0
279	346426	52.550206519025	0
279	346877	52.555206519025	0
279	347714	52.560206519025	0
279	348323	52.565206519025	0
279	348931	52.570206519025	0
279	350450	52.579220410835	0
279	351460	52.584220410835	0
279	352075	52.589220410835	0
279	352847	52.594220410835	0
279	353371	52.599220410835	0
279	354054	52.604220410835	0
279	354571	52.609220410835	0
279	354987	52.616572632539	0
279	355514	52.621572632539	0
279	355919	52.626572632539	0
279	356575	52.635269203606	0
279	356998	52.640269203606	0
279	357753	52.645269203606	0
279	358335	52.650269203606	0
279	358931	52.656962065514	0
279	359281	52.661962065514	0
279	359542	52.666962065514	0
279	360176	52.671962065514	0
279	360919	52.676962065514	0
279	361646	52.681962065514	0
279	362066	52.686962065514	0
279	362237	52.691962065514	0
279	362680	52.698018629371	0
279	363268	52.703018629371	0
279	363942	52.708018629371	0
279	364549	52.713018629371	0
279	364626	52.718018629371	0
279	364900	52.723165228657	0
279	365244	52.728165228657	0
279	365590	52.733165228657	0
279	365667	52.738165228657	0
279	366004	52.743724474612	0
279	366283	52.748724474612	0
279	366634	52.753724474612	0
279	366635	52.758724474612	0
279	366978	52.781403757807	0
279	366979	52.786403757807	0
279	367333	52.830996533929	0
279	367334	52.835996533929	0
279	368020	52.905516547182	0
279	368097	52.910516547182	0
279	368684	52.916316574404	0
279	368685	52.921316574404	0
279	369124	53.505	23
279	370168	53.51	0
279	371075	53.515	0
279	371811	53.52	0
279	372421	53.525059786559	0
279	373187	53.530059786559	0
279	374062	53.535059786559	0
279	375230	53.540059786559	0
279	375926	53.545059786559	0
279	376904	53.550059786559	0
279	377617	53.555059786559	0
279	378327	53.560059786559	0
279	378940	53.565059786559	0
279	380057	53.570059786559	0
279	381157	53.575059786559	0
279	381849	53.580059786559	0
279	382600	53.585059786559	0
279	383458	53.590059786559	0
279	383814	53.595059786559	0
279	384828	53.600059786559	0
279	385543	53.605059786559	0
279	386242	53.610059786559	0
279	386892	53.615059786559	0
279	387629	53.620059786559	0
279	389607	53.641077326916	0
279	390189	53.646077326916	0
279	390698	53.651077326916	0
279	391110	53.656077326916	0
279	391297	53.665646500689	0
279	391727	53.670646500689	0
279	392237	53.675646500689	0
279	393162	53.690537212281	0
279	393592	53.695537212281	0
279	394236	53.700537212281	0
279	394748	53.705537212281	0
279	395700	53.710537212281	0
279	396356	53.715537212281	0
279	396698	53.721024570071	0
279	397322	53.726024570071	0
279	398430	53.737449232254	0
279	398591	53.742449232254	0
279	399291	53.748134192319	0
279	399891	53.753134192319	0
279	400618	53.762216437008	0
279	400889	53.767216437008	0
279	400966	53.772216437008	0
279	401655	53.778496150033	0
279	402174	53.783496150033	0
279	402525	53.788496150033	0
279	402620	53.793496150033	0
279	402967	53.811634133523	0
279	402968	53.816634133523	0
279	403132	54.505	1
279	403139	54.51	0
279	404630	54.519517619727	28
279	405622	54.524517619727	0
279	406566	54.529517619727	0
279	407608	54.534517619727	0
279	408451	54.539517619727	0
279	409748	54.544517619727	0
279	410874	54.549517619727	0
279	411337	54.554517619727	0
279	412256	54.559517619727	0
279	413119	54.564517619727	0
279	414203	54.569517619727	0
279	415725	54.581218831473	0
279	416441	54.586218831473	0
279	417626	54.591218831473	0
279	418445	54.596218831473	0
279	419390	54.601222404478	0
279	420323	54.606222404478	0
279	420790	54.611222404478	0
279	422526	54.623659601642	0
279	423139	54.628659601642	0
279	423919	54.633659601642	0
279	424700	54.639932663188	0
279	425071	54.644932663188	0
279	426885	54.656881786866	0
279	427488	54.661881786866	0
279	428352	54.667018163429	0
279	428735	54.672018163429	0
279	429283	54.677018163429	0
279	429956	54.682018163429	0
279	431602	54.693354187071	0
279	432373	54.698354187071	0
279	433287	54.703354187071	0
279	433959	54.708354187071	0
279	434713	54.713354187071	0
279	435455	54.718354187071	0
279	436918	54.730468684848	0
279	437357	54.735468684848	0
279	438200	54.740468684848	0
279	438989	54.745468684848	0
279	439498	54.750468684848	0
279	440193	54.755468684848	0
279	440368	54.760468684848	0
279	440983	54.766713946717	0
279	441408	54.771713946717	0
279	441870	54.776713946717	0
279	442561	54.781713946717	0
279	442926	54.798452543465	0
279	442929	54.803452543465	0
279	443117	54.808452543465	0
279	443728	54.813452543465	0
279	444012	54.818452543465	0
279	444013	54.823452543465	0
279	444445	54.836901258296	0
279	444719	54.841901258296	0
279	444720	54.846901258296	0
279	445424	54.857653508303	0
279	445425	54.862653508303	0
279	448214	70.00501	0
279	448547	70.01001	0
279	448877	70.01501	0
279	449212	70.02001	0
279	449553	70.02501	0
279	449554	70.03001	0
279	449915	71.00501	0
279	450269	71.01001	0
279	450512	71.01501	0
279	451116	71.02004603823	0
279	451470	71.02504603823	0
279	451797	71.03004603823	0
279	452616	71.03504603823	0
279	452966	71.04004603823	0
279	453315	71.04504603823	0
279	453316	71.05004603823	0
279	453665	71.061372088451	0
279	453666	71.066372088451	0
279	454146	72.00501	0
279	454492	72.01001	0
279	454915	72.01501	0
279	455499	72.02001	0
279	456000	72.02501	0
279	456575	72.03001	0
279	456852	72.03501	0
279	456853	72.04001	0
279	457616	72.05440409916	0
279	457959	72.05940409916	0
279	458296	72.065524131805	0
279	458568	72.070524131805	0
279	458569	72.075524131805	0
279	459074	73.00501	0
279	459430	73.01001	0
279	459780	73.01501	0
279	460130	73.02001	0
279	460536	73.02501	0
279	461057	73.03001	0
279	461659	73.03501	0
279	462573	73.04001	0
279	463190	73.04501	0
279	463885	73.05001	0
279	464247	73.05501	0
279	464248	73.06001	0
279	546613	670.00501	0
279	546949	670.01001	0
279	547279	670.01501	0
279	547955	670.02001	0
279	547956	670.02501	0
279	548282	671.00501	0
279	548532	671.01001	0
279	549155	671.015276026281	0
279	549489	671.020276026281	0
279	549969	671.025276026281	0
279	550658	671.030276026281	0
279	550995	671.035276026281	0
279	550996	671.040276026281	0
279	551676	671.056324095801	0
279	552022	671.061324095801	0
279	552023	671.066324095801	0
279	552506	672.00501	0
279	552846	672.01001	0
279	553199	672.01501	0
279	553605	672.02001	0
279	554374	672.02501	0
279	554375	672.03001	0
279	555404	672.054372075262	0
279	555833	672.059372075262	0
279	556334	672.064372075262	0
279	556771	672.069372075262	0
279	556772	672.074372075262	0
279	557277	673.00501	0
279	557636	673.01001	0
279	557980	673.01501	0
279	558336	673.02001	0
279	558666	673.02501	0
279	559259	673.03001	0
279	559686	673.03501	0
279	559859	673.04001	0
279	560536	673.061692087266	0
279	561048	673.066692087266	0
279	561398	673.071692087266	0