version 2
run AODVScenario_1f-40-20121121-14:52:43-3380
attr configname AODVScenario_1f
attr datetime 20121121-14:52:43
attr experiment AODVScenario_1f
attr inifile AODV.ini
attr iterationvars $numNodes=90
attr iterationvars2 "$numNodes=90, $repetition=0"
attr measurement $numNodes=90
attr network csma802154net
attr numNodes 90
attr processid 3380
attr repetition 0
attr replication #0
attr resultdir results
attr runnumber 40
attr seedset 40

vector 371  csma802154net.dataCentricNetworkMan  RREQPacketFrequency  ETV
vector 372  csma802154net.dataCentricNetworkMan  RERRPacketFrequency  ETV
vector 373  csma802154net.dataCentricNetworkMan  DiscoveryPacketFrequency  ETV
vector 374  csma802154net.dataCentricNetworkMan  RegisterPacketFrequency  ETV
vector 375  csma802154net.dataCentricNetworkMan  RReplyPacketFrequency  ETV
vector 376  csma802154net.dataCentricNetworkMan  AODVDataPacketFrequency  ETV
vector 383  csma802154net.dataCentricNetworkMan  pendingRegistrationVector  ETV
vector 382  csma802154net.dataCentricNetworkMan  pendingRREQVector  ETV
vector 380  csma802154net.dataCentricNetworkMan  PendingDataPacketsVector  ETV
vector 399  csma802154net.fixhost[15].udpApp  "End-to-end delay"  ETV
vector 368  csma802154net.dataCentricNetworkMan  dataPacketE2EDelay  ETV
vector 404  csma802154net.fixhost[20].udpApp  "End-to-end delay"  ETV
vector 391  csma802154net.fixhost[7].udpApp  "End-to-end delay"  ETV
vector 389  csma802154net.fixhost[5].udpApp  "End-to-end delay"  ETV
vector 402  csma802154net.fixhost[18].udpApp  "End-to-end delay"  ETV
vector 392  csma802154net.fixhost[8].udpApp  "End-to-end delay"  ETV
vector 394  csma802154net.fixhost[10].udpApp  "End-to-end delay"  ETV
vector 386  csma802154net.fixhost[2].udpApp  "End-to-end delay"  ETV
vector 387  csma802154net.fixhost[3].udpApp  "End-to-end delay"  ETV
vector 393  csma802154net.fixhost[9].udpApp  "End-to-end delay"  ETV
368	825751	70.019764034374	0.019764034374
368	826197	70.022356073289	0.022356073289
368	828898	71.021356082239	0.021356082239
368	829787	71.042444054281	0.042444054281
368	831196	71.052244129074	0.052244129074
368	834376	72.031876080573	0.031876080573
368	835758	72.054484113884	0.054484113884
368	839014	73.024516080552	0.024516080552
368	841810	73.082572116876	0.082572116876
368	843235	73.109020148204	0.109020148204
368	955209	670.016916073287	0.016916073287
368	955677	670.019124034375	0.019124034375
368	957727	671.01627605428	0.01627605428
368	958638	671.025444082238	0.025444082238
368	960026	671.036564129073	0.036564129073
368	963209	672.026436080573	0.026436080573
368	964591	672.058892113885	0.058892113885
368	968561	673.036596144456	0.036596144456
368	969535	673.045444178782	0.045444178782
368	970501	673.05493220427	0.05493220427
368	1082231	1270.013116034376	0.013116034376
368	1083123	1270.042764073289	0.042764073289
368	1085188	1271.021716054281	0.021716054281
368	1086096	1271.029284082239	0.029284082239
368	1087492	1271.041364129074	0.041364129074
368	1090671	1272.025796080572	0.025796080572
368	1092053	1272.056404113884	0.056404113884
368	1095559	1273.025156080552	0.025156080552
368	1096735	1273.032724116876	0.032724116876
368	1098159	1273.061732148204	0.061732148204
368	1209790	1870.010236034375	0.010236034375
368	1210676	1870.018444073288	0.018444073288
368	1212741	1871.01979605428	0.01979605428
368	1213649	1871.027044082237	0.027044082237
368	1215045	1871.038484129072	0.038484129072
368	1218477	1872.034076112525	0.034076112525
368	1219401	1872.042036139977	0.042036139977
368	1222656	1873.02355608055	0.02355608055
368	1224190	1873.058572116876	0.058572116876
368	1225722	1873.091348148203	0.091348148203
368	1337703	2470.014324034376	0.014324034376
368	1338149	2470.016596073289	0.016596073289
368	1340669	2471.020044054281	0.020044054281
368	1342070	2471.030812082238	0.030812082238
368	1342529	2471.034324129074	0.034324129074
368	1345509	2472.027396080573	0.027396080573
368	1347099	2472.060812113885	0.060812113885
368	1350336	2473.027076080551	0.027076080551
368	1352228	2473.059244148828	0.059244148828
368	1353188	2473.065284174315	0.065284174315
368	1465166	3070.015676034376	0.015676034376
368	1465615	3070.019404073289	0.019404073289
368	1469507	3071.034324129072	0.034324129072
368	1469951	3071.054172082237	0.054172082237
368	1470396	3071.061180054279	0.061180054279
368	1473853	3072.029276112525	0.029276112525
368	1474777	3072.037484139977	0.037484139977
368	1478748	3073.036916144455	0.036916144455
368	1480210	3073.05084420427	0.05084420427
368	1480691	3073.053692178783	0.053692178783
368	1592318	3670.012796034375	0.012796034375
368	1593205	3670.021324073288	0.021324073288
368	1595457	3671.019476054281	0.019476054281
368	1596800	3671.049444082239	0.049444082239
368	1597739	3671.057684129074	0.057684129074
368	1601831	3672.032476112524	0.032476112524
368	1602759	3672.060844139975	0.060844139975
368	1607717	3673.04739620052	0.04739620052
368	1608203	3673.05497217878	0.05497217878
368	1608681	3673.058804224742	0.058804224742
368	1720664	4270.017204034375	0.017204034375
368	1721113	4270.022604073289	0.022604073289
368	1723178	4271.016276054279	0.016276054279
368	1724088	4271.024804082236	0.024804082236
368	1725481	4271.034964129071	0.034964129071
368	1728645	4272.025156080572	0.025156080572
368	1730027	4272.052884113885	0.052884113885
368	1733282	4273.02387608055	0.02387608055
368	1734816	4273.057292116875	0.057292116875
368	1736347	4273.089748148202	0.089748148202
368	1848329	4870.015924034376	0.015924034376
368	1848774	4870.018516073289	0.018516073289
368	1851026	4871.016916054281	0.016916054281
368	1852130	4871.045604082239	0.045604082239
368	1853531	4871.078412129074	0.078412129074
368	1856692	4872.024196080573	0.024196080573
368	1858074	4872.052564113884	0.052564113884
368	1862041	4873.033396144455	0.033396144455
368	1863506	4873.044804178782	0.044804178782
368	1863985	4873.051484204269	0.051484204269
368	1976046	5470.016596073289	0.016596073289
368	1976517	5470.019764034376	0.019764034376
368	1979018	5471.018444054281	0.018444054281
368	1979686	5471.028572082238	0.028572082238
368	1981546	5471.061132129073	0.061132129073
368	1985187	5472.032796112525	0.032796112525
368	1986115	5472.062444139977	0.062444139977
368	1989354	5473.027716080552	0.027716080552
368	1991251	5473.064684148829	0.064684148829
368	1992217	5473.074812174316	0.074812174316
368	2104196	6070.015284034376	0.015284034376
368	2104644	6070.018196073289	0.018196073289
368	2106709	6071.01627605428	0.01627605428
368	2107617	6071.025444082238	0.025444082238
368	2109013	6071.038804129073	0.038804129073
368	2112444	6072.027356112524	0.027356112524
368	2113368	6072.035636139976	0.035636139976
368	2118033	6073.037196178782	0.037196178782
368	2118510	6073.039652144455	0.039652144455
368	2119482	6073.072284204269	0.072284204269
368	2231461	6670.017276034376	0.017276034376
368	2231910	6670.023884073288	0.023884073288
368	2234427	6671.018124054281	0.018124054281
368	2234894	6671.023524082238	0.023524082238
368	2236291	6671.039052129074	0.039052129074
368	2239270	6672.034436080572	0.034436080572
368	2240645	6672.045524113884	0.045524113884
368	2244819	6673.035636144455	0.035636144455
368	2245797	6673.064324178781	0.064324178781
368	2246763	6673.072212204268	0.072212204268
368	2358397	7270.012156034376	0.012156034376
368	2359280	7270.018124073288	0.018124073288
368	2361533	7271.020116054281	0.020116054281
368	2362906	7271.051684082239	0.051684082239
368	2363846	7271.059532129074	0.059532129074
368	2367282	7272.033756112524	0.033756112524
368	2368206	7272.044204139975	0.044204139975
368	2372394	7273.031156146831	0.031156146831
368	2372871	7273.034004112504	0.034004112504
368	2374299	7273.058284148203	0.058284148203
371	818	1.005	1
371	1020	1.01	42
371	2256	1.015	75
371	3951	1.02	77
371	5546	1.025	40
371	7498	1.03	98
371	9172	1.035	44
371	10900	1.04	63
371	12439	1.045	68
371	14033	1.05	104
371	15121	1.055	80
371	16340	1.06	49
371	17402	1.065	63
371	18116	1.07	68
371	18729	1.075	49
371	19568	1.08	54
371	20314	1.085	55
371	20825	1.09	47
371	21142	1.095	26
371	21560	1.1	27
371	22429	1.105	83
371	22430	1.11	0
371	23118	1.119239410019	63
371	23749	1.124239410019	55
371	23954	1.129239410019	0
371	24675	1.134416687184	73
371	24676	1.139416687184	0
371	24999	1.148082339953	27
371	25318	1.153082339953	27
371	25319	1.158082339953	0
371	25633	1.192236041073	26
371	25634	1.197236041073	0
371	25983	1.215266747959	33
371	25984	1.220266747959	0
371	26333	1.250234747959	33
371	26334	1.255234747959	0
371	34159	43.505	1
371	34166	43.51	0
371	36477	43.518987238734	47
371	38765	43.523987238734	0
371	40135	43.528987238734	0
371	41224	43.533987238734	0
371	42095	43.538987238734	0
371	43693	43.543987238734	0
371	45038	43.548987238734	0
371	46751	43.553987238734	0
371	47952	43.558987238734	0
371	49082	43.563987238734	0
371	50164	43.568987238734	0
371	51327	43.573987238734	0
371	54357	43.586924566551	0
371	55152	43.591924566551	0
371	56317	43.596924566551	0
371	60551	43.615544028144	0
371	61413	43.620544028144	0
371	64093	43.63245370411	0
371	65239	43.63745370411	0
371	69383	43.653439467986	0
371	70297	43.658439467986	0
371	71571	43.663549756768	0
371	72543	43.668549756768	0
371	74360	43.679136770803	0
371	75358	43.684136770803	0
371	76673	43.689136770803	0
371	77727	43.694136770803	0
371	79044	43.699136770803	0
371	80306	43.704136770803	0
371	83267	43.719692008292	0
371	84506	43.724692008292	0
371	85700	43.729692008292	0
371	86971	43.734692008292	0
371	88077	43.740032783859	0
371	89028	43.745032783859	0
371	90201	43.750032783859	0
371	91461	43.755032783859	0
371	92218	43.760032783859	0
371	93375	43.765032783859	0
371	94522	43.770032783859	0
371	96149	43.778694655959	0
371	97114	43.783694655959	0
371	98005	43.788694655959	0
371	98883	43.793694655959	0
371	100076	43.798694655959	0
371	101146	43.803694655959	0
371	102105	43.808694655959	0
371	102754	43.813694655959	0
371	104573	43.822955057297	0
371	105526	43.827955057297	0
371	106311	43.832955057297	0
371	107151	43.837955057297	0
371	108344	43.843480795272	0
371	109326	43.848480795272	0
371	110308	43.853480795272	0
371	111014	43.858480795272	0
371	112098	43.863916439048	0
371	113097	43.868916439048	0
371	114085	43.873916439048	0
371	115044	43.878916439048	0
371	115836	43.883916439048	0
371	116662	43.888916439048	0
371	118935	43.903684108785	0
371	119684	43.908684108785	0
371	120380	43.913684108785	0
371	121013	43.918684108785	0
371	122294	43.929262309809	0
371	123027	43.934262309809	0
371	123623	43.939262309809	0
371	124676	43.944262309809	0
371	125973	43.953389762843	0
371	126853	43.958389762843	0
371	127055	43.963389762843	0
371	128153	43.968581870312	0
371	128616	43.973581870312	0
371	128717	43.978581870312	0
371	129073	43.983581870312	0
371	129076	43.988581870312	0
371	129725	43.999952323514	0
371	130362	44.004952323514	0
371	130363	44.009952323514	0
371	130822	44.023014211612	0
371	130823	44.028014211612	0
371	131251	44.056276968977	0
371	131252	44.061276968977	0
371	131265	44.505	1
371	131636	44.51	31
371	132895	44.515	0
371	134475	44.52	0
371	136229	44.526659302531	0
371	136906	44.531659302531	0
371	138750	44.54420078478	0
371	139602	44.54920078478	0
371	143365	44.569462595028	0
371	143919	44.574462595028	0
371	145308	44.581498776034	0
371	145965	44.586498776034	0
371	146966	44.591498776034	0
371	147904	44.596498776034	0
371	149727	44.6065930022	0
371	150255	44.6115930022	0
371	151177	44.617038932222	0
371	152245	44.622038932222	0
371	153093	44.627038932222	0
371	154390	44.632841729652	0
371	155241	44.637841729652	0
371	156193	44.642841729652	0
371	157706	44.651851340975	0
371	158353	44.656851340975	0
371	159886	44.667994715113	0
371	160933	44.672994715113	0
371	161575	44.677994715113	0
371	163519	44.691724868979	0
371	164135	44.696724868979	0
371	165193	44.701724868979	0
371	165999	44.706724868979	0
371	166899	44.711724868979	0
371	167528	44.716724868979	0
371	168386	44.723189740664	0
371	169276	44.728189740664	0
371	170010	44.733189740664	0
371	170862	44.738189740664	0
371	172257	44.746536225851	0
371	172981	44.751536225851	0
371	173822	44.756536225851	0
371	174363	44.761536225851	0
371	175417	44.766536225851	0
371	175531	44.771536225851	0
371	176932	44.782147156217	0
371	177474	44.787147156217	0
371	178625	44.792147156217	0
371	179264	44.797147156217	0
371	179496	44.802147156217	0
371	181405	44.816538536298	0
371	181927	44.821538536298	0
371	182524	44.826538536298	0
371	183195	44.831538536298	0
371	184110	44.838690208046	0
371	184311	44.843690208046	0
371	185839	44.861374385304	0
371	185941	44.866374385304	0
371	186842	44.87208221532	0
371	187693	44.87708221532	0
371	188127	44.88208221532	0
371	188457	44.888190802163	0
371	188458	44.893190802163	0
371	189316	44.927277545518	0
371	189317	44.932277545518	0
371	189610	45.505	1
371	190584	45.51	45
371	192364	45.515	0
371	194135	45.52	0
371	196017	45.525373949001	0
371	196794	45.530373949001	0
371	197596	45.535373949001	0
371	198570	45.540373949001	0
371	200193	45.545373949001	0
371	204838	45.566005758962	0
371	205788	45.571005758962	0
371	207023	45.577298909406	0
371	208444	45.582298909406	0
371	209908	45.587298909406	0
371	210937	45.592298909406	0
371	212947	45.600702474905	0
371	214111	45.605702474905	0
371	215183	45.610702474905	0
371	216631	45.615702474905	0
371	217888	45.620702474905	0
371	218588	45.625702474905	0
371	220095	45.631813768312	0
371	220869	45.636813768312	0
371	225625	45.660166105426	0
371	226587	45.665166105426	0
371	228225	45.670697812569	0
371	229391	45.675697812569	0
371	231712	45.685746465304	0
371	232856	45.690746465304	0
371	236134	45.705959789041	0
371	237460	45.710959789041	0
371	238680	45.715959789041	0
371	240365	45.7263269796	0
371	241568	45.7313269796	0
371	243123	45.7363269796	0
371	244098	45.7413269796	0
371	245156	45.7463269796	0
371	246416	45.751779614823	0
371	247130	45.756779614823	0
371	248631	45.761779614823	0
371	249375	45.766779614823	0
371	251588	45.775154371177	0
371	252563	45.780154371177	0
371	253521	45.785630721397	0
371	254565	45.790630721397	0
371	257667	45.804737679602	0
371	258725	45.809737679602	0
371	259638	45.814737679602	0
371	260495	45.819737679602	0
371	261494	45.824737679602	0
371	262469	45.829737679602	0
371	263465	45.834737679602	0
371	264478	45.839737679602	0
371	265575	45.84731752154	0
371	266654	45.85231752154	0
371	267427	45.85731752154	0
371	268283	45.86231752154	0
371	269055	45.86731752154	0
371	270005	45.87231752154	0
371	270708	45.87731752154	0
371	272521	45.882963780079	0
371	272942	45.887963780079	0
371	274703	45.89834391258	0
371	275168	45.90334391258	0
371	276663	45.913729743205	0
371	277230	45.918729743205	0
371	277925	45.923729743205	0
371	278623	45.928729743205	0
371	279630	45.933729743205	0
371	280188	45.938729743205	0
371	280995	45.944504647763	0
371	281439	45.949504647763	0
371	281651	45.954504647763	0
371	283187	45.96250090043	0
371	283643	45.96750090043	0
371	283644	45.97250090043	0
371	284980	45.992371872026	0
371	284984	45.997371872026	0
371	285619	46.005029457688	0
371	285623	46.010029457688	0
371	286058	46.017269786629	0
371	286059	46.022269786629	0
371	286618	46.505	1
371	287817	46.51	38
371	289798	46.515	0
371	291640	46.52	0
371	292223	46.525	0
371	293390	46.53	0
371	294364	46.535	0
371	295342	46.54	0
371	296904	46.545670970025	0
371	297904	46.550670970025	0
371	298792	46.555670970025	0
371	300200	46.560670970025	0
371	301620	46.565670970025	0
371	304200	46.576643341029	0
371	305184	46.581643341029	0
371	305865	46.586643341029	0
371	307115	46.591643341029	0
371	308392	46.596643341029	0
371	309403	46.601643341029	0
371	312162	46.616260455845	0
371	313283	46.621260455845	0
371	313823	46.626260455845	0
371	316365	46.638583605049	0
371	317476	46.643583605049	0
371	318425	46.648583605049	0
371	319644	46.653583605049	0
371	320610	46.658583605049	0
371	322766	46.669650630197	0
371	323612	46.674650630197	0
371	324749	46.679650630197	0
371	328778	46.700561329982	0
371	329629	46.705561329982	0
371	330721	46.710561329982	0
371	331411	46.715561329982	0
371	332479	46.720561329982	0
371	333260	46.725561329982	0
371	336798	46.744605070823	0
371	337544	46.749605070823	0
371	338606	46.754605070823	0
371	339584	46.759605070823	0
371	340901	46.764605070823	0
371	341688	46.769605070823	0
371	342245	46.774605070823	0
371	343087	46.779605070823	0
371	344102	46.784605070823	0
371	344779	46.789605070823	0
371	345350	46.794605070823	0
371	345921	46.799605070823	0
371	346812	46.804605070823	0
371	348483	46.815107193817	0
371	348932	46.820107193817	0
371	350125	46.825107193817	0
371	350570	46.830107193817	0
371	351120	46.835107193817	0
371	352132	46.844405062266	0
371	352594	46.849405062266	0
371	353277	46.854405062266	0
371	353949	46.859405062266	0
371	354922	46.869549328395	0
371	355022	46.874549328395	0
371	355480	46.88031444061	0
371	356130	46.88531444061	0
371	356695	46.89031444061	0
371	357140	46.89531444061	0
371	358142	46.914790743922	0
371	358657	46.919790743922	0
371	359115	46.925159620161	0
371	359119	46.930159620161	0
371	359354	46.938003975688	0
371	359356	46.943003975688	0
371	359811	46.953312280521	0
371	359813	46.958312280521	0
371	360716	46.9753362902	0
371	360717	46.9803362902	0
371	361371	47.505	1
371	361733	47.51	22
371	363049	47.515	0
371	364136	47.52	0
371	365449	47.527346865555	0
371	366135	47.532346865555	0
371	366775	47.537346865555	0
371	367575	47.542346865555	0
371	368556	47.547346865555	0
371	369236	47.552346865555	0
371	370146	47.557346865555	0
371	370910	47.562346865555	0
371	371787	47.567346865555	0
371	372889	47.572346865555	0
371	373803	47.577346865555	0
371	375086	47.582346865555	0
371	375853	47.587346865555	0
371	376174	47.592346865555	0
371	376855	47.597437724906	0
371	377922	47.602437724906	0
371	378864	47.607437724906	0
371	379533	47.612437724906	0
371	380617	47.619589261016	0
371	381246	47.624589261016	0
371	382609	47.633579886384	0
371	383366	47.638579886384	0
371	384150	47.643579886384	0
371	384366	47.648579886384	0
371	384912	47.653579886384	0
371	385245	47.658579886384	0
371	386233	47.666566158517	0
371	386841	47.671566158517	0
371	387202	47.678270181962	0
371	387308	47.683270181962	0
371	388299	47.689875842347	0
371	389185	47.694875842347	0
371	390049	47.699875842347	0
371	390994	47.704875842347	0
371	391212	47.709875842347	0
371	391896	47.714875842347	0
371	392237	47.719875842347	0
371	392700	47.724875842347	0
371	394513	47.739596773929	0
371	394650	47.744596773929	0
371	394862	47.750890403853	0
371	395174	47.755890403853	0
371	396035	47.762632383654	0
371	396510	47.767632383654	0
371	397275	47.772632383654	0
371	397491	47.777632383654	0
371	398553	47.785237268551	0
371	398554	47.790237268551	0
371	398742	48.505	1
371	398752	48.51	0
371	400059	48.517321996947	18
371	400965	48.522321996947	0
371	402505	48.527321996947	0
371	403814	48.532321996947	0
371	404681	48.537321996947	0
371	405376	48.542321996947	0
371	406034	48.547321996947	0
371	406694	48.552321996947	0
371	408205	48.559079602936	0
371	409093	48.564079602936	0
371	410116	48.569079602936	0
371	411197	48.574113794699	0
371	411994	48.579113794699	0
371	413296	48.584113794699	0
371	413607	48.589113794699	0
371	414386	48.594215853386	0
371	415348	48.599215853386	0
371	415544	48.604215853386	0
371	415998	48.609252429923	0
371	416956	48.614252429923	0
371	417475	48.619252429923	0
371	418688	48.624591227615	0
371	419551	48.629591227615	0
371	420304	48.639409819906	0
371	421101	48.644409819906	0
371	421961	48.649409819906	0
371	422722	48.654409819906	0
371	423676	48.659584161582	0
371	423995	48.664584161582	0
371	424669	48.669584161582	0
371	425229	48.674584161582	0
371	425672	48.679584161582	0
371	426249	48.687344449052	0
371	426571	48.692344449052	0
371	427032	48.697344449052	0
371	427462	48.702344449052	0
371	428313	48.709976237237	0
371	428314	48.714976237237	0
371	428742	48.747776223995	0
371	428743	48.752776223995	0
371	429157	48.774840240056	0
371	429158	48.779840240056	0
371	429941	48.817040254527	0
371	430546	48.822040254527	0
371	430989	48.827040254527	0
371	431230	49.505	1
371	431694	49.51	33
371	433373	49.515	0
371	434542	49.52	0
371	435791	49.525	0
371	436687	49.53	0
371	437752	49.535	0
371	439343	49.54	0
371	440413	49.545	0
371	441747	49.55	0
371	442341	49.555	0
371	442933	49.56	0
371	444033	49.565287915503	0
371	445191	49.570287915503	0
371	446275	49.575287915503	0
371	448548	49.588166971788	0
371	449330	49.593166971788	0
371	452094	49.60900067822	0
371	453165	49.61400067822	0
371	453899	49.61900067822	0
371	454668	49.625248843232	0
371	455307	49.630248843232	0
371	458321	49.649049741001	0
371	458985	49.654049741001	0
371	459999	49.659049741001	0
371	462259	49.668039942794	0
371	462914	49.673039942794	0
371	464487	49.681056173128	0
371	465278	49.686056173128	0
371	468432	49.706300128396	0
371	469185	49.711300128396	0
371	469998	49.716300128396	0
371	470651	49.721300128396	0
371	471571	49.727420396328	0
371	472444	49.732420396328	0
371	472994	49.737878411679	0
371	473578	49.742878411679	0
371	474659	49.747878411679	0
371	475608	49.752878411679	0
371	477207	49.762358286081	0
371	478037	49.767358286081	0
371	478809	49.772358286081	0
371	479720	49.777358286081	0
371	480540	49.782358286081	0
371	481423	49.787358286081	0
371	481847	49.792358286081	0
371	483039	49.805398306041	0
371	483877	49.810398306041	0
371	484846	49.815398306041	0
371	485830	49.820398306041	0
371	486029	49.825398306041	0
371	487479	49.844159968389	0
371	487928	49.849159968389	0
371	488272	49.854159968389	0
371	488722	49.859159968389	0
371	489180	49.864159968389	0
371	489606	49.869159968389	0
371	490143	49.892488014023	0
371	490604	49.897488014023	0
371	490944	49.902488014023	0
371	490945	49.907488014023	0
371	491510	49.968034579654	0
371	491877	49.973034579654	0
371	492314	49.978034579654	0
371	492315	49.983034579654	0
371	493223	49.99419460304	0
371	493224	49.99919460304	0
371	493548	50.505	1
371	494172	50.51	23
371	495111	50.515	0
371	496285	50.52	0
371	497330	50.527188787485	0
371	497936	50.532188787485	0
371	498835	50.537188787485	0
371	499942	50.542188787485	0
371	500640	50.547188787485	0
371	501410	50.552188787485	0
371	502479	50.557188787485	0
371	503358	50.562188787485	0
371	503950	50.567188787485	0
371	504642	50.572188787485	0
371	505619	50.577188787485	0
371	506563	50.582188787485	0
371	507308	50.587188787485	0
371	508398	50.592188787485	0
371	508821	50.597188787485	0
371	509475	50.602188787485	0
371	510045	50.609590638925	0
371	510730	50.614590638925	0
371	511629	50.619590638925	0
371	512303	50.624590638925	0
371	513481	50.63179537297	0
371	514130	50.63679537297	0
371	515775	50.646676987095	0
371	516863	50.651676987095	0
371	517640	50.656676987095	0
371	518177	50.661676987095	0
371	518972	50.666718226792	0
371	519544	50.671718226792	0
371	520292	50.676718226792	0
371	520727	50.681718226792	0
371	521711	50.689326572936	0
371	522165	50.694326572936	0
371	522757	50.699326572936	0
371	524161	50.710398243255	0
371	524588	50.715398243255	0
371	525510	50.720398243255	0
371	526094	50.725398243255	0
371	526630	50.730398243255	0
371	527085	50.735398243255	0
371	527434	50.740398243255	0
371	528205	50.745398243255	0
371	528660	50.750398243255	0
371	529037	50.755398243255	0
371	529468	50.760398243255	0
371	530355	50.780457397833	0
371	530356	50.785457397833	0
371	530812	50.826032447795	0
371	530912	50.831032447795	0
371	531743	50.84061604148	0
371	532187	50.84561604148	0
371	532429	51.505	1
371	533466	51.51	44
371	536251	51.515	0
371	537795	51.52	0
371	539814	51.528742510315	0
371	541067	51.533742510315	0
371	541930	51.538742510315	0
371	543298	51.543742510315	0
371	545386	51.551365953441	0
371	546722	51.556365953441	0
371	548065	51.561365953441	0
371	549004	51.566365953441	0
371	550206	51.571365953441	0
371	553082	51.583951793498	0
371	554123	51.588951793498	0
371	555287	51.593951793498	0
371	556848	51.600858113763	0
371	557896	51.605858113763	0
371	559111	51.610858113763	0
371	560496	51.617375989954	0
371	561262	51.622375989954	0
371	562284	51.627375989954	0
371	567352	51.649084175057	0
371	568072	51.654084175057	0
371	569387	51.66134129006	0
371	570609	51.66634129006	0
371	571410	51.67134129006	0
371	576043	51.693285418438	0
371	577007	51.698285418438	0
371	577994	51.703285418438	0
371	579238	51.708724630021	0
371	580173	51.713724630021	0
371	581592	51.718724630021	0
371	582825	51.723724630021	0
371	583649	51.728724630021	0
371	584440	51.733724630021	0
371	585896	51.738724630021	0
371	586941	51.743724630021	0
371	587962	51.748724630021	0
371	588699	51.753724630021	0
371	590277	51.761700138285	0
371	590971	51.766700138285	0
371	592009	51.771700138285	0
371	593127	51.776700138285	0
371	593945	51.781700138285	0
371	594606	51.786700138285	0
371	595178	51.791700138285	0
371	596129	51.796700138285	0
371	597249	51.801700138285	0
371	598157	51.806700138285	0
371	598972	51.811700138285	0
371	599516	51.816700138285	0
371	600540	51.824194127478	0
371	600989	51.829194127478	0
371	601459	51.835774326031	0
371	601464	51.840774326031	0
371	602499	51.848116775624	0
371	603215	51.853116775624	0
371	603341	51.858116775624	0
371	604254	51.871726911572	0
371	604735	51.876726911572	0
371	605439	51.881726911572	0
371	606127	51.886726911572	0
371	606128	51.891726911572	0
371	606937	51.902163805451	0
371	607538	51.907163805451	0
371	608004	51.912163805451	0
371	608005	51.917163805451	0
371	608231	52.505	1
371	608244	52.51	0
371	609957	52.516978890934	35
371	611867	52.521978890934	0
371	613213	52.526978890934	0
371	614561	52.531978890934	0
371	615611	52.536978890934	0
371	616886	52.541978890934	0
371	618052	52.546978890934	0
371	618945	52.551978890934	0
371	620310	52.556978890934	0
371	621455	52.561978890934	0
371	622248	52.566978890934	0
371	623338	52.571978890934	0
371	624238	52.577221589887	0
371	625367	52.582221589887	0
371	628537	52.600301075938	0
371	629355	52.605301075938	0
371	631536	52.613522190846	0
371	632479	52.618522190846	0
371	633762	52.627461828132	0
371	634576	52.632461828132	0
371	635258	52.637461828132	0
371	636298	52.642461828132	0
371	637159	52.647461828132	0
371	639615	52.6605018602	0
371	640559	52.6655018602	0
371	642378	52.676323584447	0
371	643223	52.681323584447	0
371	645859	52.696327044559	0
371	646523	52.701327044559	0
371	647336	52.706327044559	0
371	648617	52.711327044559	0
371	649971	52.71652474688	0
371	651230	52.72152474688	0
371	652585	52.72652474688	0
371	653345	52.73152474688	0
371	654342	52.73652474688	0
371	655548	52.74152474688	0
371	656225	52.74652474688	0
371	660110	52.768980200399	0
371	660986	52.773980200399	0
371	662159	52.778980200399	0
371	663990	52.790300072203	0
371	664793	52.795300072203	0
371	665466	52.800300072203	0
371	666143	52.805300072203	0
371	666949	52.810300072203	0
371	668390	52.818740509369	0
371	669105	52.823740509369	0
371	669647	52.828740509369	0
371	671256	52.841463974142	0
371	671832	52.846463974142	0
371	672602	52.851463974142	0
371	673257	52.856463974142	0
371	674997	52.868624610884	0
371	675707	52.873624610884	0
371	676295	52.878624610884	0
371	676857	52.883624610884	0
371	677893	52.892147621763	0
371	678348	52.897147621763	0
371	678898	52.902147621763	0
371	679576	52.907147621763	0
371	680018	52.912147621763	0
371	681044	52.932202510844	0
371	681850	52.937202510844	0
371	682481	52.942202510844	0
371	682818	52.947202510844	0
371	684015	52.958075063084	0
371	684673	52.963075063084	0
371	685275	52.968075063084	0
371	685727	52.973075063084	0
371	686178	52.992653590038	0
371	686179	52.997653590038	0
371	686398	53.505	1
371	687137	53.51	32
371	688430	53.515	0
371	689540	53.52	0
371	691141	53.525	0
371	692088	53.53	0
371	693752	53.535	0
371	695514	53.54	0
371	696231	53.545	0
371	697169	53.55	0
371	698280	53.555	0
371	699518	53.56	0
371	701352	53.567397011422	0
371	701948	53.572397011422	0
371	702804	53.580412350484	0
371	703822	53.585412350484	0
371	704387	53.590412350484	0
371	706504	53.601456468633	0
371	707099	53.606456468633	0
371	708129	53.611456468633	0
371	708824	53.616456468633	0
371	710303	53.622351135099	0
371	711225	53.627351135099	0
371	712016	53.632351135099	0
371	713719	53.643148353035	0
371	714397	53.648148353035	0
371	715452	53.653148353035	0
371	717489	53.669734760802	0
371	718202	53.674734760802	0
371	718784	53.679734760802	0
371	720201	53.685822758863	0
371	721052	53.690822758863	0
371	722072	53.696311155533	0
371	722642	53.701311155533	0
371	723592	53.706311155533	0
371	724468	53.711311155533	0
371	725308	53.716311155533	0
371	725769	53.721311155533	0
371	727426	53.732048088136	0
371	728447	53.737048088136	0
371	728900	53.742048088136	0
371	731013	53.75863535186	0
371	731536	53.76363535186	0
371	732261	53.768667380717	0
371	733184	53.773667380717	0
371	733877	53.778667380717	0
371	734711	53.783667380717	0
371	735944	53.791107802392	0
371	737001	53.796107802392	0
371	738475	53.804969201081	0
371	739343	53.809969201081	0
371	740321	53.815895327622	0
371	741026	53.820895327622	0
371	741361	53.825895327622	0
371	742823	53.834808493677	0
371	743393	53.839808493677	0
371	744486	53.847983968037	0
371	744922	53.852983968037	0
371	746431	53.874392304707	0
371	747261	53.879392304707	0
371	747848	53.884392304707	0
371	748639	53.889392304707	0
371	749557	53.905091711137	0
371	749658	53.910091711137	0
371	750488	53.921118779462	0
371	750497	53.926118779462	0
371	751637	53.954105172858	0
371	751638	53.959105172858	0
371	752407	54.505	1
371	753198	54.51	37
371	755276	54.515	0
371	756786	54.52	0
371	758710	54.532112023218	0
371	759720	54.537112023218	0
371	761001	54.544783292712	0
371	761823	54.549783292712	0
371	762734	54.554783292712	0
371	763906	54.559783292712	0
371	765246	54.564783292712	0
371	766382	54.569783292712	0
371	768510	54.581117298686	0
371	769501	54.586117298686	0
371	770652	54.591117298686	0
371	771516	54.596117298686	0
371	774406	54.612875838038	0
371	775316	54.617875838038	0
371	776338	54.622875838038	0
371	777439	54.627875838038	0
371	779307	54.638604775001	0
371	780411	54.643604775001	0
371	781221	54.649586486444	0
371	782027	54.654586486444	0
371	783985	54.668245937569	0
371	784791	54.673245937569	0
371	787668	54.688973310668	0
371	788732	54.693973310668	0
371	789461	54.698973310668	0
371	790164	54.703973310668	0