version 2
run AODVScenario_1f-58-20121121-14:58:57-2188
attr configname AODVScenario_1f
attr datetime 20121121-14:58:57
attr experiment AODVScenario_1f
attr inifile AODV.ini
attr iterationvars $numNodes=108
attr iterationvars2 "$numNodes=108, $repetition=0"
attr measurement $numNodes=108
attr network csma802154net
attr numNodes 108
attr processid 2188
attr repetition 0
attr replication #0
attr resultdir results
attr runnumber 58
attr seedset 58

vector 443  csma802154net.dataCentricNetworkMan  RREQPacketFrequency  ETV
vector 444  csma802154net.dataCentricNetworkMan  RERRPacketFrequency  ETV
vector 445  csma802154net.dataCentricNetworkMan  DiscoveryPacketFrequency  ETV
vector 446  csma802154net.dataCentricNetworkMan  RegisterPacketFrequency  ETV
vector 447  csma802154net.dataCentricNetworkMan  RReplyPacketFrequency  ETV
vector 448  csma802154net.dataCentricNetworkMan  AODVDataPacketFrequency  ETV
vector 455  csma802154net.dataCentricNetworkMan  pendingRegistrationVector  ETV
vector 454  csma802154net.dataCentricNetworkMan  pendingRREQVector  ETV
vector 452  csma802154net.dataCentricNetworkMan  PendingDataPacketsVector  ETV
vector 460  csma802154net.fixhost[4].udpApp  "End-to-end delay"  ETV
vector 440  csma802154net.dataCentricNetworkMan  dataPacketE2EDelay  ETV
vector 461  csma802154net.fixhost[5].udpApp  "End-to-end delay"  ETV
vector 464  csma802154net.fixhost[8].udpApp  "End-to-end delay"  ETV
vector 468  csma802154net.fixhost[12].udpApp  "End-to-end delay"  ETV
vector 472  csma802154net.fixhost[16].udpApp  "End-to-end delay"  ETV
vector 473  csma802154net.fixhost[17].udpApp  "End-to-end delay"  ETV
vector 471  csma802154net.fixhost[15].udpApp  "End-to-end delay"  ETV
vector 459  csma802154net.fixhost[3].udpApp  "End-to-end delay"  ETV
vector 474  csma802154net.fixhost[18].udpApp  "End-to-end delay"  ETV
vector 462  csma802154net.fixhost[6].udpApp  "End-to-end delay"  ETV
vector 463  csma802154net.fixhost[7].udpApp  "End-to-end delay"  ETV
vector 469  csma802154net.fixhost[13].udpApp  "End-to-end delay"  ETV
440	969833	70.009316021182	0.009316021182
440	970343	70.013436041611	0.013436041611
440	970867	70.017876073819	0.017876073819
440	974613	71.024164063644	0.024164063644
440	975150	71.027684071464	0.027684071464
440	977316	71.059212110774	0.059212110774
440	981535	72.032124109747	0.032124109747
440	982088	72.034012073181	0.034012073181
440	983166	72.056692125818	0.056692125818
440	988062	73.033396100127	0.033396100127
440	991784	73.105180117005	0.105180117005
440	993428	73.121100153421	0.121100153421
440	1127225	670.006756021183	0.006756021183
440	1127735	670.011516041613	0.011516041613
440	1128259	670.016916073822	0.016916073822
440	1131478	671.021996063644	0.021996063644
440	1133066	671.056412071464	0.056412071464
440	1134146	671.066820110772	0.066820110772
440	1138117	672.029316125819	0.029316125819
440	1139314	672.037596141789	0.037596141789
440	1140020	672.062524106386	0.062524106386
440	1145190	673.033396100124	0.033396100124
440	1146805	673.040684117002	0.040684117002
440	1148449	673.051732153418	0.051732153418
440	1281698	1270.008676021183	0.008676021183
440	1282208	1270.012156041613	0.012156041613
440	1282732	1270.016596073822	0.016596073822
440	1285831	1271.021676063644	0.021676063644
440	1287017	1271.051612071464	0.051612071464
440	1288619	1271.068100110773	0.068100110773
440	1291573	1272.021036073183	0.021036073183
440	1293389	1272.03084412582	0.03084412582
440	1294996	1272.057900109749	0.057900109749
440	1299864	1273.034356100127	0.034356100127
440	1302526	1273.060204117005	0.060204117005
440	1303621	1273.067164153421	0.067164153421
440	1437527	1870.007716021183	0.007716021183
440	1438037	1870.011516041613	0.011516041613
440	1438561	1870.016596073822	0.016596073822
440	1441769	1871.022636063643	0.022636063643
440	1442835	1871.047204071463	0.047204071463
440	1444437	1871.061452110773	0.061452110773
440	1447634	1872.021676073182	0.021676073182
440	1449235	1872.052212125819	0.052212125819
440	1450317	1872.066788109748	0.066788109748
440	1455201	1873.034356100127	0.034356100127
440	1457981	1873.070300117004	0.070300117004
440	1458925	1873.07445215342	0.07445215342
440	1593531	2470.007396021183	0.007396021183
440	1594041	2470.011516041613	0.011516041613
440	1594565	2470.015316073822	0.015316073822
440	1597966	2471.019436071464	0.019436071464
440	1599046	2471.027036110774	0.027036110774
440	1600171	2471.033692063644	0.033692063644
440	1604157	2472.020716073183	0.020716073183
440	1605229	2472.02579612582	0.02579612582
440	1606311	2472.038132109748	0.038132109748
440	1611197	2473.035636100125	0.035636100125
440	1613867	2473.073892117003	0.073892117003
440	1614963	2473.07925215342	0.07925215342
440	1748212	3070.008676021183	0.008676021183
440	1748722	3070.014076041613	0.014076041613
440	1749246	3070.018516073822	0.018516073822
440	1752961	3071.025764071463	0.025764071463
440	1753532	3071.030172063644	0.030172063644
440	1755127	3071.058644110773	0.058644110773
440	1758547	3072.02739612582	0.02739612582
440	1759682	3072.039732106387	0.039732106387
440	1760760	3072.056652141788	0.056652141788
440	1765461	3073.035316117004	0.035316117004
440	1767764	3073.057172153421	0.057172153421
440	1769456	3073.077980100127	0.077980100127
440	1902813	3670.011236021183	0.011236021183
440	1903322	3670.015996041613	0.015996041613
440	1903846	3670.020436073821	0.020436073821
440	1907336	3671.022956071463	0.022956071463
440	1907908	3671.025372063642	0.025372063642
440	1909497	3671.036564110772	0.036564110772
440	1912565	3672.022956073183	0.022956073183
440	1914294	3672.058932125818	0.058932125818
440	1916161	3672.090468109747	0.090468109747
440	1921376	3673.034996117003	0.034996117003
440	1923158	3673.04892415342	0.04892415342
440	1924851	3673.075420100126	0.075420100126
440	2058099	4270.008676021182	0.008676021182
440	2058609	4270.013756041612	0.013756041612
440	2059133	4270.01883607382	0.01883607382
440	2062538	4271.024556071463	0.024556071463
440	2063615	4271.030876110772	0.030876110772
440	2064740	4271.038172063642	0.038172063642
440	2069264	4272.028036106386	0.028036106386
440	2070591	4272.034324141786	0.034324141786
440	2071658	4272.059252125818	0.059252125818
440	2077898	4273.038124100125	0.038124100125
440	2078819	4273.044060117002	0.044060117002
440	2080068	4273.051164153417	0.051164153417
440	2213317	4870.007716021183	0.007716021183
440	2213827	4870.012796041613	0.012796041613
440	2214351	4870.016916073822	0.016916073822
440	2218106	4871.026404063644	0.026404063644
440	2218643	4871.033052071464	0.033052071464
440	2220247	4871.064012110774	0.064012110774
440	2223315	4872.021676073182	0.021676073182
440	2225273	4872.057972109748	0.057972109748
440	2226338	4872.081580125819	0.081580125819
440	2231239	4873.034356100127	0.034356100127
440	2232869	4873.063012117003	0.063012117003
440	2235028	4873.07982015342	0.07982015342
440	2368386	5470.010276021182	0.010276021182
440	2368895	5470.015036041612	0.015036041612
440	2369419	5470.018516073821	0.018516073821
440	2372627	5471.020716063644	0.020716063644
440	2374330	5471.046812071464	0.046812071464
440	2375523	5471.076172110772	0.076172110772
440	2379240	5472.025156106387	0.025156106387
440	2380317	5472.034716141789	0.034716141789
440	2381382	5472.05381212582	0.05381212582
440	2386772	5473.035884117004	0.035884117004
440	2387899	5473.042780100126	0.042780100126
440	2390066	5473.06844415342	0.06844415342
440	2523315	6070.007716021183	0.007716021183
440	2523825	6070.011196041613	0.011196041613
440	2524349	6070.015636073822	0.015636073822
440	2528098	6071.021284063644	0.021284063644
440	2528631	6071.023844071464	0.023844071464
440	2530234	6071.051284110774	0.051284110774
440	2533431	6072.020716073183	0.020716073183
440	2535032	6072.05509212582	0.05509212582
440	2536114	6072.065508109748	0.065508109748
440	2541389	6073.039156100126	0.039156100126
440	2543688	6073.05660415342	0.05660415342
440	2544794	6073.068132117005	0.068132117005
440	2678043	6670.009316021183	0.009316021183
440	2678553	6670.014076041613	0.014076041613
440	2679077	6670.018196073821	0.018196073821
440	2682290	6671.019436063642	0.019436063642
440	2684422	6671.060492110772	0.060492110772
440	2684954	6671.062668071462	0.062668071462
440	2688146	6672.021996073183	0.021996073183
440	2689975	6672.052924109748	0.052924109748
440	2691040	6672.076532125819	0.076532125819
440	2695937	6673.036916100125	0.036916100125
440	2698624	6673.067492117004	0.067492117004
440	2700266	6673.07829215342	0.07829215342
440	2833623	7270.008036021183	0.008036021183
440	2834133	7270.012796041613	0.012796041613
440	2834657	7270.018196073821	0.018196073821
440	2838336	7271.027044071464	0.027044071464
440	2839416	7271.035924110774	0.035924110774
440	2841060	7271.057372063644	0.057372063644
440	2844243	7272.021036073182	0.021036073182
440	2845845	7272.047164109748	0.047164109748
440	2846903	7272.053492125819	0.053492125819
440	2851802	7273.033076100127	0.033076100127
440	2854486	7273.066532117003	0.066532117003
440	2855581	7273.071892153418	0.071892153418
443	857	1.005	1
443	864	1.01	0
443	1320	1.01846077029	32
443	2204	1.02346077029	82
443	3532	1.02846077029	92
443	5654	1.03346077029	95
443	8281	1.03846077029	70
443	10948	1.04346077029	90
443	13138	1.04846077029	62
443	15125	1.05346077029	104
443	16796	1.05846077029	97
443	18371	1.06346077029	82
443	20168	1.06846077029	103
443	21336	1.07346077029	46
443	22880	1.07846077029	109
443	24290	1.08346077029	122
443	25263	1.08846077029	52
443	26484	1.09346077029	112
443	27467	1.09846077029	85
443	27998	1.10346077029	11
443	29339	1.10846077029	120
443	30624	1.11346077029	92
443	32369	1.11846077029	114
443	34261	1.12346077029	58
443	34795	1.12846077029	15
443	35755	1.13346077029	102
443	36700	1.13846077029	34
443	37586	1.14346077029	74
443	38719	1.14846077029	93
443	39587	1.15346077029	60
443	40067	1.15846077029	52
443	40190	1.16346077029	0
443	41422	1.170346910159	112
443	42242	1.175346910159	75
443	43006	1.180346910159	62
443	43949	1.185346910159	49
443	44243	1.190346910159	38
443	44612	1.195346910159	29
443	44613	1.200346910159	0
443	45365	1.214069825669	60
443	45483	1.219069825669	0
443	45836	1.225916884542	50
443	45837	1.230916884542	0
443	46801	1.255437825669	105
443	46802	1.260437825669	0
443	56193	43.505	1
443	56317	43.51	0
443	57534	43.516359123091	24
443	59200	43.521359123091	0
443	60330	43.526359123091	0
443	61415	43.531359123091	0
443	62564	43.53796824344	0
443	63588	43.54296824344	0
443	64702	43.54796824344	0
443	65115	43.55296824344	0
443	65740	43.55796824344	0
443	66623	43.56296824344	0
443	67368	43.56796824344	0
443	68859	43.57296824344	0
443	69461	43.57796824344	0
443	70645	43.583027706626	0
443	71161	43.588027706626	0
443	72331	43.594550572628	0
443	73187	43.599550572628	0
443	76126	43.617119592253	0
443	76632	43.622119592253	0
443	77795	43.627386048318	0
443	78403	43.632386048318	0
443	79299	43.638528224157	0
443	79921	43.643528224157	0
443	80318	43.648528224157	0
443	80949	43.653528224157	0
443	81957	43.659166493522	0
443	82816	43.664166493522	0
443	83061	43.669166493522	0
443	84416	43.676866682691	0
443	85450	43.681866682691	0
443	86354	43.686866682691	0
443	86865	43.691866682691	0
443	87609	43.696866682691	0
443	88110	43.701866682691	0
443	88833	43.709877720958	0
443	89333	43.714877720958	0
443	89944	43.719877720958	0
443	90814	43.724877720958	0
443	91427	43.729877720958	0
443	92186	43.734877720958	0
443	92310	43.739877720958	0
443	92819	43.747157158608	0
443	93325	43.752157158608	0
443	93967	43.757157158608	0
443	94482	43.762157158608	0
443	94892	43.767354076451	0
443	94893	43.772354076451	0
443	95394	43.785699719269	0
443	95512	43.790699719269	0
443	95918	43.796065657056	0
443	95919	43.801065657056	0
443	96266	44.505	1
443	97607	44.51	39
443	99002	44.515	0
443	100325	44.52	0
443	101648	44.525	0
443	102607	44.53	0
443	103671	44.535	0
443	104743	44.54	0
443	106041	44.547604881534	0
443	106849	44.552604881534	0
443	107618	44.557604881534	0
443	108540	44.562604881534	0
443	110586	44.571764279481	0
443	111853	44.576764279481	0
443	113039	44.581764279481	0
443	114880	44.593613348653	0
443	116058	44.598613348653	0
443	116939	44.603613348653	0
443	119246	44.613497007332	0
443	120360	44.618497007332	0
443	124252	44.638559935382	0
443	125407	44.643559935382	0
443	126427	44.648559935382	0
443	132326	44.677754883302	0
443	133367	44.682754883302	0
443	134258	44.687754883302	0
443	136416	44.699948341357	0
443	137911	44.704948341357	0
443	138843	44.709948341357	0
443	139547	44.714948341357	0
443	147487	44.746466937318	0
443	148647	44.751466937318	0
443	149782	44.756466937318	0
443	150680	44.761466937318	0
443	151949	44.767181955861	0
443	152843	44.772181955861	0
443	153815	44.780741716364	0
443	155111	44.785741716364	0
443	156179	44.791714073067	0
443	157092	44.796714073067	0
443	159345	44.809877437549	0
443	160222	44.814877437549	0
443	161607	44.819877437549	0
443	162551	44.824877437549	0
443	163668	44.829877437549	0
443	164584	44.834877437549	0
443	165609	44.84143490574	0
443	166794	44.84643490574	0
443	167964	44.85143490574	0
443	168932	44.85643490574	0
443	170264	44.86143490574	0
443	172566	44.873636831702	0
443	173737	44.878636831702	0
443	173995	44.883636831702	0
443	175269	44.888636831702	0
443	176205	44.893636831702	0
443	177096	44.898636831702	0
443	177373	44.903636831702	0
443	178041	44.908636831702	0
443	178970	44.913636831702	0
443	179906	44.918636831702	0
443	180547	44.923842298158	0
443	181743	44.928842298158	0
443	182285	44.933842298158	0
443	183268	44.938842298158	0
443	184184	44.943842298158	0
443	185481	44.948842298158	0
443	186128	44.953842298158	0
443	187695	44.963293480675	0
443	188357	44.968293480675	0
443	189387	44.973293480675	0
443	189883	44.978293480675	0
443	190275	44.983293480675	0
443	190281	44.995437437549	0
443	191013	45.000437437549	0
443	191529	45.021815857716	0
443	191530	45.026815857716	0
443	192054	45.044079881282	0
443	192055	45.049079881282	0
443	192063	45.505	1
443	192186	45.51	0
443	193976	45.515545329031	36
443	195214	45.520545329031	0
443	198185	45.532832226398	0
443	199254	45.537832226398	0
443	200237	45.542832226398	0
443	201687	45.548313332371	0
443	202577	45.553313332371	0
443	204282	45.561614645904	0
443	205511	45.566614645904	0
443	206836	45.57298245825	0
443	207922	45.57798245825	0
443	209523	45.588142499818	0
443	210543	45.593142499818	0
443	211899	45.598142499818	0
443	213894	45.608486131383	0
443	214288	45.613486131383	0
443	215614	45.618545794258	0
443	216478	45.623545794258	0
443	219411	45.637461613883	0
443	220184	45.642461613883	0
443	222541	45.653426338823	0
443	223436	45.658426338823	0
443	224648	45.666621634889	0
443	225769	45.671621634889	0
443	226827	45.676621634889	0
443	228292	45.682885374584	0
443	229686	45.687885374584	0
443	230567	45.692885374584	0
443	231480	45.697885374584	0
443	232886	45.702885374584	0
443	233527	45.707885374584	0
443	234406	45.712885374584	0
443	235581	45.717885374584	0
443	237356	45.72537328449	0
443	238130	45.73037328449	0
443	239036	45.73537328449	0
443	240065	45.74037328449	0
443	240606	45.74537328449	0
443	241620	45.75037328449	0
443	242397	45.75537328449	0
443	243301	45.76037328449	0
443	244938	45.768077394011	0
443	245945	45.773077394011	0
443	246987	45.778077394011	0
443	247639	45.783077394011	0
443	248540	45.788077394011	0
443	249314	45.793077394011	0
443	250666	45.798077394011	0
443	251542	45.803077394011	0
443	252919	45.809995926006	0
443	253591	45.814995926006	0
443	254130	45.819995926006	0
443	254638	45.824995926006	0
443	254775	45.829995926006	0
443	255759	45.834995926006	0
443	256839	45.839995926006	0
443	257725	45.844995926006	0
443	258263	45.849995926006	0
443	258942	45.854995926006	0
443	259929	45.859995926006	0
443	261124	45.864995926006	0
443	261925	45.869995926006	0
443	262468	45.874995926006	0
443	263653	45.889358157748	0
443	264268	45.894358157748	0
443	264271	45.899358157748	0
443	264506	45.904358157748	0
443	264788	45.917272732701	0
443	264789	45.922272732701	0
443	265430	45.929798234785	0
443	265973	45.934798234785	0
443	266762	45.939798234785	0
443	267409	45.944798234785	0
443	267633	46.505	1
443	267640	46.51	0
443	269293	46.518983858019	29
443	270755	46.523983858019	0
443	272274	46.528983858019	0
443	273332	46.533983858019	0
443	273990	46.538983858019	0
443	275309	46.543983858019	0
443	276617	46.548983858019	0
443	277654	46.553983858019	0
443	279054	46.558983858019	0
443	280650	46.563983858019	0
443	282044	46.568983858019	0
443	282953	46.573983858019	0
443	284216	46.578983858019	0
443	285250	46.583983858019	0
443	286526	46.588983858019	0
443	287204	46.593983858019	0
443	288125	46.598983858019	0
443	288889	46.603983858019	0
443	290057	46.608983858019	0
443	291336	46.613983858019	0
443	292286	46.618983858019	0
443	293458	46.623983858019	0
443	294123	46.628983858019	0
443	294899	46.633983858019	0
443	295684	46.638983858019	0
443	296227	46.643983858019	0
443	297150	46.648983858019	0
443	298650	46.656994012231	0
443	299461	46.661994012231	0
443	300362	46.666994012231	0
443	302584	46.676659663071	0
443	302980	46.681659663071	0
443	304836	46.689594640664	0
443	305663	46.694594640664	0
443	308448	46.703885715264	0
443	308966	46.708885715264	0
443	310114	46.714165737879	0
443	310886	46.719165737879	0
443	313323	46.729329860144	0
443	313822	46.734329860144	0
443	315451	46.742998762938	0
443	316749	46.747998762938	0
443	317843	46.752998762938	0
443	318757	46.757998762938	0
443	319416	46.762998762938	0
443	320490	46.767998762938	0
443	321241	46.772998762938	0
443	322281	46.777998762938	0
443	322929	46.782998762938	0
443	323334	46.787998762938	0
443	324108	46.792998762938	0
443	325201	46.799161696581	0
443	326252	46.804161696581	0
443	327316	46.809722598994	0
443	327728	46.814722598994	0
443	327732	46.819722598994	0
443	328779	46.856945716211	0
443	329164	46.861945716211	0
443	329933	46.866945716211	0
443	331134	46.873435876569	0
443	331673	46.878435876569	0
443	332183	46.883435876569	0
443	332301	46.888435876569	0
443	332682	46.893704391484	0
443	333068	46.898704391484	0
443	333220	46.903704391484	0
443	333567	47.505	1
443	334531	47.51	41
443	336749	47.515	0
443	338625	47.52	0
443	340114	47.525	0
443	341079	47.53	0
443	342406	47.535	0
443	343724	47.54	0
443	345087	47.545	0
443	346230	47.55	0
443	347037	47.555	0
443	348219	47.561784955696	0
443	349435	47.566784955696	0
443	350628	47.571784955696	0
443	351571	47.576784955696	0
443	353181	47.58453607792	0
443	354498	47.58953607792	0
443	355775	47.59453607792	0
443	356698	47.59953607792	0
443	357708	47.60453607792	0
443	358673	47.60953607792	0
443	359842	47.61453607792	0
443	361255	47.61953607792	0
443	362088	47.62453607792	0
443	363305	47.62953607792	0
443	363996	47.63453607792	0
443	365023	47.63953607792	0
443	366318	47.64453607792	0
443	367541	47.64953607792	0
443	368566	47.65453607792	0
443	369857	47.661512854918	0
443	370711	47.666512854918	0
443	372155	47.671512854918	0
443	373555	47.676512854918	0
443	374761	47.681512854918	0
443	376215	47.687898417204	0
443	377030	47.692898417204	0
443	382627	47.721974242087	0
443	384067	47.726974242087	0
443	385242	47.731974242087	0
443	386066	47.736974242087	0
443	387262	47.741974242087	0
443	387946	47.746974242087	0
443	389032	47.751974242087	0
443	390133	47.756974242087	0
443	391565	47.761974242087	0
443	392714	47.766974242087	0
443	393396	47.771974242087	0
443	394842	47.776974242087	0
443	395753	47.781974242087	0
443	396907	47.786974242087	0
443	398046	47.791974242087	0
443	398973	47.796974242087	0
443	401075	47.806453105938	0
443	402054	47.811453105938	0
443	402824	47.816453105938	0
443	404154	47.822137703777	0
443	405688	47.827137703777	0
443	406759	47.832137703777	0
443	407436	47.840054405352	0
443	408376	47.845054405352	0
443	409147	47.850054405352	0
443	409822	47.861847938368	0
443	410362	47.866847938368	0
443	411346	47.871847938368	0
443	412499	47.876847938368	0
443	413203	47.881847938368	0
443	413207	47.886847938368	0
443	414904	47.909522337712	0
443	415331	47.914522337712	0
443	415985	47.919522337712	0
443	416648	47.924522337712	0
443	417170	47.929522337712	0
443	417715	47.934522337712	0
443	417716	47.939522337712	0
443	418259	47.951788357881	0
443	418260	47.956788357881	0
443	418493	48.505	1
443	419021	48.51	31
443	420916	48.515	0
443	423277	48.52	0
443	424815	48.525	0
443	426087	48.53	0
443	427050	48.535	0
443	427886	48.54	0
443	429088	48.545	0
443	430536	48.55	0
443	431698	48.555	0
443	433088	48.56	0
443	434392	48.565	0
443	435479	48.57	0
443	437167	48.575	0
443	438339	48.58	0
443	439316	48.585	0
443	440238	48.59	0
443	442235	48.595	0
443	442987	48.6	0
443	445228	48.611464381704	0
443	446204	48.616464381704	0
443	447249	48.621464381704	0
443	448655	48.629481233881	0
443	449460	48.634481233881	0
443	450367	48.639481233881	0
443	451023	48.644481233881	0
443	452224	48.649481233881	0
443	453244	48.654481233881	0
443	454718	48.664816649455	0
443	455646	48.669816649455	0
443	456439	48.674816649455	0
443	457643	48.683106733289	0
443	459185	48.688106733289	0
443	460237	48.693106733289	0
443	461000	48.698106733289	0
443	461979	48.703106733289	0
443	462539	48.708106733289	0
443	463445	48.713106733289	0
443	464131	48.718106733289	0
443	464665	48.723106733289	0
443	465693	48.729901904022	0
443	466257	48.734901904022	0
443	466781	48.739901904022	0
443	467697	48.750417257552	0
443	468863	48.755417257552	0
443	469531	48.760417257552	0
443	470572	48.765417257552	0
443	471851	48.770417257552	0
443	472784	48.775417257552	0
443	472789	48.780417257552	0
443	473941	48.787568056746	0
443	474377	48.792568056746	0
443	474378	48.797568056746	0
443	475465	48.811330754631	0
443	475583	48.816330754631	0
443	476553	48.843325841305	0
443	476554	48.848325841305	0
443	476811	49.505	1
443	477795	49.51	41
443	480093	49.515	0
443	482549	49.52	0
443	484340	49.525	0
443	485953	49.53	0
443	487390	49.535	0
443	489052	49.54	0
443	490763	49.546628152937	0
443	492894	49.551628152937	0
443	494196	49.556628152937	0
443	495864	49.561628152937	0
443	497367	49.566628152937	0
443	498904	49.572747273711	0
443	499663	49.577747273711	0
443	500930	49.583178146156	0
443	502850	49.588178146156	0
443	504798	49.593178146156	0
443	505593	49.598178146156	0
443	507324	49.606020170167	0
443	508624	49.611020170167	0
443	510028	49.616020170167	0
443	511347	49.621020170167	0
443	519670	49.655257840051	0
443	521081	49.660257840051	0
443	523553	49.672959552982	0
443	524895	49.677959552982	0
443	526704	49.682959552982	0
443	527866	49.687959552982	0
443	529713	49.695728616616	0
443	530848	49.700728616616	0
443	531963	49.705728616616	0
443	533010	49.710728616616	0
443	534207	49.715728616616	0
443	535508	49.720728616616	0
443	536809	49.725728616616	0
443	538534	49.73592056239	0
443	539806	49.74092056239	0
443	540972	49.74592056239	0
443	544065	49.75713789515	0
443	544730	49.76213789515	0
443	546089	49.768794183893	0
443	547000	49.773794183893	0
443	548163	49.778794183893	0
443	550236	49.788138151222	0
443	551213	49.793138151222	0
443	551969	49.798138151222	0
443	553550	49.809561135937	0
443	554508	49.814561135937	0
443	555176	49.819561135937	0
443	556347	49.824561135937	0
443	557584	49.829561135937	0
443	558612	49.834561135937	0
443	560128	49.839561135937	0
443	560937	49.844561135937	0
443	561902	49.849561135937	0
443	562944	49.854561135937	0
443	563871	49.859561135937	0
443	564520	49.864561135937	0
443	564521	49.869561135937	0
443	565408	49.879323037747	0
443	565847	49.884323037747	0
443	567049	49.901090186246	0
443	567682	49.906090186246	0
443	568238	49.911090186246	0
443	568618	49.916090186246	0
443	568870	49.928333517983	0
443	569305	49.933333517983	0
443	569308	49.939923103612	0
443	569309	49.944923103612	0
443	569860	49.986543531813	0
443	569861	49.991543531813	0
443	570124	50.505	1
443	570134	50.51	0
443	572163	50.517290146766	31
443	573710	50.522290146766	0
443	577073	50.533132840615	0
443	578143	50.538132840615	0
443	579415	50.543132840615	0
443	580360	50.548132840615	0
443	581785	50.553132840615	0
443	582951	50.558132840615	0
443	584246	50.563132840615	0
443	585793	50.568132840615	0
443	587494	50.573132840615	0
443	588486	50.578132840615	0
443	589919	50.583132840615	0
443	590972	50.588132840615	0
443	592393	50.593132840615	0
443	593164	50.598132840615	0
443	594064	50.603132840615	0
443	595261	50.608184163953	0
443	596690	50.613184163953	0
443	597115	50.618184163953	0
443	597730	50.623184163953	0
443	599249	50.628924646722	0
443	600543	50.633924646722	0
443	601311	50.638924646722	0
443	603553	50.652239956267	0
443	604581	50.657239956267	0
443	605712	50.662239956267	0
443	607653	50.670846200465	0
443	608296	50.675846200465	0
443	610380	50.686790685235	0
443	611464	50.691790685235	0
443	612346	50.696790685235	0
443	613488	50.701790685235	0
443	614873	50.711248017856	0
443	615660	50.716248017856	0
443	618139	50.730516576627	0
443	619328	50.735516576627	0
443	620144	50.740516576627	0
443	622239	50.748386004141	0
443	622760	50.753386004141	0
443	623776	50.758386004141	0
443	624401	50.763386004141	0
443	626363	50.774430730565	0
443	627212	50.779430730565	0
443	628537	50.786006716777	0
443	629466	50.791006716777	0
443	630363	50.796006716777	0
443	631284	50.801006716777	0
443	632454	50.806006716777	0
443	633275	50.811006716777	0
443	634591	50.816006716777	0
443	635007	50.821006716777	0
443	635520	50.826006716777	0
443	637994	50.83720236692	0
443	638935	50.84220236692	0
443	639599	50.84720236692	0
443	640407	50.85220236692	0
443	640670	50.85720236692	0
443	641082	50.862491869504	0
443	641204	50.867491869504	0
443	642694	50.876563535518	0
443	643367	50.881563535518	0
443	644285	50.886563535518	0
443	645368	50.891563535518	0
443	645372	50.896563535518	0
443	645897	50.913410467118	0
443	645898	50.918410467118	0
443	646941	50.932628610735	0
443	646942	50.937628610735	0
443	647484	50.946755551218	0
443	647602	50.951755551218	0
443	648032	50.957114495433	0
443	648033	50.962114495433	0
443	648299	51.505	1
443	648915	51.51	48
443	651188	51.515	0
443	653107	51.52	0
443	655008	51.525	0
443	656437	51.531596091104	0
443	657906	51.536596091104	0
443	659985	51.541596091104	0
443	661213	51.546596091104	0
443	663112	51.551596091104	0
443	664545	51.556596091104	0
443	666588	51.565231890382	0
443	667795	51.570231890382	0
443	669733	51.575231890382	0
443	670982	51.580231890382	0
443	673035	51.585231890382	0
443	674086	51.590231890382	0
443	675303	51.595231890382	0
443	678786	51.605354974413	0
443	680088	51.610354974413	0
443	684719	51.629644146438	0
443	686188	51.634644146438	0
443	687694	51.641089398015	0
443	688909	51.646089398015	0
443	689980	51.651089398015	0
443	692623	51.660894224272	0
443	694008	51.665894224272	0
443	695370	51.670894224272	0
443	696329	51.675894224272	0
443	698121	51.682986755499	0
443	699187	51.687986755499	0
443	701022	51.693275191865	0
443	702255	51.698275191865	0
443	703463	51.703275191865	0
443	704430	51.708275191865	0
443	706706	51.720025084388	0
443	708335	51.725025084388	0
443	709577	51.730025084388	0
443	711195	51.735025084388	0
443	712064	51.740025084388	0
443	713511	51.745025084388	0
443	714533	51.750025084388	0
443	715881	51.756439075835	0
443	717671	51.761439075835	0
443	718650	51.766439075835	0
443	720029	51.771439075835	0
443	722340	51.779359291396	0
443	723801	51.784359291396	0
443	725400	51.790960817371	0
443	726325	51.795960817371	0
443	727654	51.800960817371	0
443	728854	51.805960817371	0
443	730502	51.814427063767	0
443	731905	51.819427063767	0
443	734588	51.833212402237	0
443	735937	51.838212402237	0
443	737467	51.843212402237	0
443	738408	51.848212402237	0
443	739852	51.853212402237	0
443	741036	51.858212402237	0
443	742554	51.863212402237	0
443	743245	51.868212402237	0
443	743882	51.873212402237	0
443	745007	51.878212402237	0
443	745792	51.883212402237	0
443	746998	51.888212402237	0
443	747828	51.893212402237	0
443	748586	51.898212402237	0
443	749721	51.905271461613	0
443	750727	51.910271461613	0
443	754085	51.932514725357	0
443	755140	51.937514725357	0
443	755910	51.942514725357	0
443	756748	51.947514725357	0
443	757669	51.952514725357	0
443	757675	51.957514725357	0
443	758600	51.962514725357	0
443	759586	51.967514725357	0
443	760266	51.972514725357	0
443	761225	51.977514725357	0
443	762328	51.984558599454	0
443	762843	51.989558599454	0
443	763958	52.000865843442	0
443	764484	52.005865843442	0
443	764916	52.011125971211	0
443	765446	52.016125971211	0
443	765570	52.021125971211	0
443	766667	52.026867552267	0
443	767586	52.031867552267	0
443	767587	52.036867552267	0
443	768704	52.076543302796	0
443	768705	52.081543302796	0
443	769307	52.117787221633	0
443	769308	52.122787221633	0
443	769438	52.505	1
443	770191	52.51	24
443	772250	52.515	0
443	773886	52.52	0
443	775443	52.525	0
443	776920	52.53	0
443	778485	52.535	0
443	779971	52.54	0
443	781645	52.545	0
443	783092	52.55	0
443	784164	52.555	0
443	785049	52.56	0
443	786224	52.566846991669	0
443	787784	52.571846991669	0
443	789259	52.576846991669	0
443	790511	52.581846991669	0
443	791578	52.586846991669	0
443	792392	52.591846991669	0
443	794665	52.606033274143	0
443	795848	52.611033274143	0
443	796870	52.616033274143	0
443	798190	52.621033274143	0
443	799105	52.626033274143	0
443	800083	52.631033274143	0
443	801419	52.636033274143	0
443	802191	52.641033274143	0
443	804320	52.652038252265	0
443	805284	52.657038252265	0
443	805928	52.662038252265	0
443	806738	52.667038252265	0
443	807770	52.672038252265	0
443	808886	52.677038252265	0
443	809391	52.682038252265	0
443	809931	52.687038252265	0
443	811085	52.692038252265	0
443	812055	52.697038252265	0
443	813248	52.702038252265	0
443	814323	52.707038252265	0
443	815179	52.719273960605	0
443	815845	52.724273960605	0
443	817026	52.730597664593	0
443	817829	52.735597664593	0
443	818485	52.744775719519	0
443	819495	52.749775719519	0
443	821416	52.760267726616	0
443	822685	52.765267726616	0
443	823257	52.770267726616	0
443	823258	52.775267726616	0
443	824448	52.789759732465	0
443	825004	52.794759732465	0
443	825443	52.799759732465	0
443	825967	52.814043400975	0
443	825968	52.819043400975	0
443	826233	53.505	1
443	826597	53.51	26
443	827785	53.515	0
443	829520	53.52	0
443	830837	53.525	0
443	832436	53.53	0
443	833728	53.535	0
443	834673	53.54	0