version 2
run AODVScenario_1f-62-20121121-15:00:24-7612
attr configname AODVScenario_1f
attr datetime 20121121-15:00:24
attr experiment AODVScenario_1f
attr inifile AODV.ini
attr iterationvars $numNodes=112
attr iterationvars2 "$numNodes=112, $repetition=0"
attr measurement $numNodes=112
attr network csma802154net
attr numNodes 112
attr processid 7612
attr repetition 0
attr replication #0
attr resultdir results
attr runnumber 62
attr seedset 62

vector 459  csma802154net.dataCentricNetworkMan  RREQPacketFrequency  ETV
vector 460  csma802154net.dataCentricNetworkMan  RERRPacketFrequency  ETV
vector 461  csma802154net.dataCentricNetworkMan  DiscoveryPacketFrequency  ETV
vector 462  csma802154net.dataCentricNetworkMan  RegisterPacketFrequency  ETV
vector 463  csma802154net.dataCentricNetworkMan  RReplyPacketFrequency  ETV
vector 464  csma802154net.dataCentricNetworkMan  AODVDataPacketFrequency  ETV
vector 471  csma802154net.dataCentricNetworkMan  pendingRegistrationVector  ETV
vector 470  csma802154net.dataCentricNetworkMan  pendingRREQVector  ETV
vector 468  csma802154net.dataCentricNetworkMan  PendingDataPacketsVector  ETV
vector 477  csma802154net.fixhost[5].udpApp  "End-to-end delay"  ETV
vector 456  csma802154net.dataCentricNetworkMan  dataPacketE2EDelay  ETV
vector 481  csma802154net.fixhost[9].udpApp  "End-to-end delay"  ETV
vector 494  csma802154net.fixhost[22].udpApp  "End-to-end delay"  ETV
vector 501  csma802154net.fixhost[29].udpApp  "End-to-end delay"  ETV
vector 490  csma802154net.fixhost[18].udpApp  "End-to-end delay"  ETV
vector 482  csma802154net.fixhost[10].udpApp  "End-to-end delay"  ETV
vector 476  csma802154net.fixhost[4].udpApp  "End-to-end delay"  ETV
vector 484  csma802154net.fixhost[12].udpApp  "End-to-end delay"  ETV
456	1273674	70.017204036529	0.017204036529
456	1274240	70.024844065417	0.024844065417
456	1277756	71.025196078547	0.025196078547
456	1278299	71.027716103624	0.027716103624
456	1279437	71.039132065728	0.039132065728
456	1282487	72.10295607204	0.10295607204
456	1286867	73.043356094442	0.043356094442
456	1288685	73.076772123977	0.076772123977
456	1427681	670.01375603653	0.01375603653
456	1428784	670.043084065419	0.043084065419
456	1432000	671.020716078547	0.020716078547
456	1433157	671.032412065728	0.032412065728
456	1434234	671.049084103623	0.049084103623
456	1437266	672.02167607204	0.02167607204
456	1442063	673.030556094442	0.030556094442
456	1443209	673.040364123977	0.040364123977
456	1582512	1270.01752403653	0.01752403653
456	1583077	1270.020684065419	0.020684065419
456	1586674	1271.021996065728	0.021996065728
456	1587207	1271.023844078547	0.023844078547
456	1588283	1271.033084103624	0.033084103624
456	1591315	1272.02167607204	0.02167607204
456	1596691	1273.038124123976	0.038124123976
456	1597288	1273.043532094442	0.043532094442
456	1736680	1870.018516065419	0.018516065419
456	1738075	1870.046820036529	0.046820036529
456	1741648	1871.022316065728	0.022316065728
456	1742421	1871.025196078547	0.025196078547
456	1743502	1871.053884103624	0.053884103624
456	1746534	1872.02263607204	0.02263607204
456	1751920	1873.037524094441	0.037524094441
456	1752487	1873.041252123976	0.041252123976
456	1891787	2470.020116065419	0.020116065419
456	1893178	2470.047852036529	0.047852036529
456	1896158	2471.020076078547	0.020076078547
456	1897847	2471.034332065728	0.034332065728
456	1899220	2471.062060103624	0.062060103624
456	1902252	2472.02807607204	0.02807607204
456	1907639	2473.041004124682	0.041004124682
456	1908206	2473.046084152968	0.046084152968
456	2046970	3070.00991603653	0.00991603653
456	2048063	3070.017236065419	0.017236065419
456	2051381	3071.018156065728	0.018156065728
456	2052176	3071.021924078546	0.021924078546
456	2053251	3071.029884103623	0.029884103623
456	2056848	3072.02103607204	0.02103607204
456	2061651	3073.033756094442	0.033756094442
456	2062797	3073.044772123977	0.044772123977
456	2201675	3670.013756036529	0.013756036529
456	2202773	3670.022284065419	0.022284065419
456	2206080	3671.022956065726	0.022956065726
456	2207373	3671.048164078545	0.048164078545
456	2208454	3671.076532103621	0.076532103621
456	2211486	3672.02263607204	0.02263607204
456	2215995	3673.029276094442	0.029276094442
456	2217684	3673.065252123977	0.065252123977
456	2357221	4270.017876065418	0.017876065418
456	2357798	4270.038004036528	0.038004036528
456	2361109	4271.020716065725	0.020716065725
456	2362448	4271.02924410362	0.02924410362
456	2362972	4271.040020078544	0.040020078544
456	2366585	4272.023276072037	0.023276072037
456	2371389	4273.035636124683	0.035636124683
456	2372535	4273.046724152969	0.046724152969
456	2511836	4870.016276065419	0.016276065419
456	2512411	4870.02033203653	0.02033203653
456	2515709	4871.019116065728	0.019116065728
456	2517311	4871.047164103624	0.047164103624
456	2517834	4871.052572078547	0.052572078547
456	2520882	4872.022316072039	0.022316072039
456	2525933	4873.034996124683	0.034996124683
456	2527083	4873.06208415297	0.06208415297
456	2666497	5470.016564036529	0.016564036529
456	2667058	5470.019156065419	0.019156065419
456	2670365	5471.020716065728	0.020716065728
456	2671974	5471.050044103624	0.050044103624
456	2672494	5471.052500078547	0.052500078547
456	2675542	5472.02167607204	0.02167607204
456	2679805	5473.029596094442	0.029596094442
456	2681483	5473.039404123977	0.039404123977
456	2820782	6070.01823603653	0.01823603653
456	2821347	6070.023884065418	0.023884065418
456	2824426	6071.020716065728	0.020716065728
456	2826010	6071.032804078547	0.032804078547
456	2826557	6071.035572103624	0.035572103624
456	2829589	6072.02231607204	0.02231607204
456	2834392	6073.034036124683	0.034036124683
456	2835539	6073.04608415297	0.04608415297
456	2974308	6670.01247603653	0.01247603653
456	2975402	6670.019724065419	0.019724065419
456	2979230	6671.021676065728	0.021676065728
456	2979768	6671.024804078546	0.024804078546
456	2980845	6671.050044103623	0.050044103623
456	2983877	6672.020076072039	0.020076072039
456	2988928	6673.032436124684	0.032436124684
456	2990078	6673.059524152971	0.059524152971
456	3129487	7270.016276065419	0.016276065419
456	3130061	7270.01912403653	0.01912403653
456	3133639	7271.020396065727	0.020396065727
456	3134709	7271.026156078547	0.026156078547
456	3135252	7271.028676103624	0.028676103624
456	3138284	7272.02199607204	0.02199607204
456	3143660	7273.042956152969	0.042956152969
456	3145096	7273.072292124681	0.072292124681
459	889	1.005	1
459	1017	1.01	0
459	1694	1.015058635324	91
459	3062	1.020058635324	103
459	5194	1.025058635324	58
459	8150	1.030058635324	74
459	12244	1.035058635324	112
459	14821	1.040058635324	55
459	16783	1.045058635324	69
459	19095	1.050058635324	126
459	21014	1.055058635324	122
459	22362	1.060058635324	79
459	23792	1.065058635324	127
459	25395	1.070058635324	131
459	26261	1.075058635324	51
459	27163	1.080058635324	62
459	28185	1.085058635324	114
459	28634	1.090058635324	42
459	29415	1.095058635324	67
459	29858	1.100058635324	48
459	30433	1.105058635324	39
459	31194	1.110058635324	79
459	31743	1.115058635324	36
459	33440	1.120058635324	182
459	33891	1.125058635324	18
459	34768	1.130058635324	78
459	35853	1.135058635324	75
459	36260	1.140058635324	35
459	37018	1.145058635324	84
459	37517	1.150058635324	53
459	37956	1.155058635324	42
459	38641	1.160058635324	69
459	39814	1.165058635324	96
459	40528	1.170058635324	74
459	40650	1.175058635324	0
459	40937	1.18100585682	36
459	40938	1.18600585682	0
459	41818	1.196489396287	85
459	42236	1.201489396287	38
459	42237	1.206489396287	0
459	43090	1.220801012199	80
459	43212	1.225801012199	0
459	43544	1.230817396287	45
459	43545	1.235817396287	0
459	43973	1.258208839041	40
459	43974	1.263208839041	0
459	54218	43.505	42
459	56266	43.51	0
459	58211	43.515	0
459	61534	43.525584565141	0
459	62336	43.530584565141	0
459	64281	43.535965051448	0
459	65658	43.540965051448	0
459	66983	43.545965051448	0
459	69911	43.558396818052	0
459	71143	43.563396818052	0
459	72457	43.568396818052	0
459	73678	43.573396818052	0
459	75258	43.578396818052	0
459	76976	43.583396818052	0
459	77673	43.588396818052	0
459	78807	43.593396818052	0
459	80232	43.598396818052	0
459	81624	43.603396818052	0
459	90223	43.648180133839	0
459	91258	43.653180133839	0
459	93578	43.661094569534	0
459	94504	43.666094569534	0
459	95705	43.67194670566	0
459	97070	43.67694670566	0
459	98089	43.68194670566	0
459	99585	43.68937622976	0
459	100994	43.69437622976	0
459	101752	43.69937622976	0
459	102725	43.70437622976	0
459	104049	43.70937622976	0
459	105417	43.716524880836	0
459	106353	43.721524880836	0
459	106884	43.726524880836	0
459	108269	43.731712193771	0
459	109434	43.736712193771	0
459	110472	43.741712193771	0
459	111239	43.746712193771	0
459	112554	43.751712193771	0
459	114003	43.756712193771	0
459	114911	43.761712193771	0
459	115986	43.766712193771	0
459	116800	43.771712193771	0
459	117807	43.776712193771	0
459	119168	43.781712193771	0
459	120332	43.786712193771	0
459	122060	43.796922675767	0
459	122727	43.801922675767	0
459	123688	43.806922675767	0
459	125083	43.811922675767	0
459	126007	43.816922675767	0
459	126675	43.821922675767	0
459	127590	43.826922675767	0
459	128126	43.831922675767	0
459	129088	43.837786262911	0
459	129473	43.842786262911	0
459	130167	43.847786262911	0
459	131390	43.855084949504	0
459	132075	43.860084949504	0
459	132609	43.865084949504	0
459	132870	43.870084949504	0
459	133260	43.875084949504	0
459	135246	43.884250954104	0
459	135821	43.889250954104	0
459	136647	43.894250954104	0
459	137320	43.899250954104	0
459	138143	43.904250954104	0
459	138828	43.909250954104	0
459	140433	43.922352107217	0
459	140434	43.927352107217	0
459	141107	43.934503362829	0
459	141537	43.939503362829	0
459	142065	43.944503362829	0
459	142066	43.949503362829	0
459	143309	44.505	51
459	145557	44.51	0
459	147635	44.515	0
459	149436	44.52	0
459	151118	44.525	0
459	153206	44.534934548272	0
459	154329	44.539934548272	0
459	155956	44.544934548272	0
459	157924	44.549934548272	0
459	160228	44.558397173462	0
459	161363	44.563397173462	0
459	162208	44.568397173462	0
459	164711	44.576525255992	0
459	166315	44.581525255992	0
459	167298	44.586525255992	0
459	168912	44.593484399484	0
459	169899	44.598484399484	0
459	171505	44.603484399484	0
459	172911	44.609695663617	0
459	174369	44.614695663617	0
459	175724	44.619695663617	0
459	176665	44.624695663617	0
459	177895	44.629695663617	0
459	179714	44.634695663617	0
459	181494	44.639695663617	0
459	182785	44.644695663617	0
459	184067	44.65092512437	0
459	185417	44.65592512437	0
459	189160	44.675900285524	0
459	190529	44.680900285524	0
459	191381	44.685900285524	0
459	194192	44.695717184124	0
459	195376	44.700717184124	0
459	196978	44.707663099953	0
459	198058	44.712663099953	0
459	199465	44.718420148578	0
459	200417	44.723420148578	0
459	201515	44.728420148578	0
459	202959	44.733420148578	0
459	205431	44.74253803349	0
459	207053	44.74753803349	0
459	208136	44.75253803349	0
459	209630	44.75753803349	0
459	211066	44.76253803349	0
459	212431	44.76753803349	0
459	213643	44.77253803349	0
459	215291	44.782126128737	0
459	216602	44.787126128737	0
459	217534	44.792126128737	0
459	218628	44.797126128737	0
459	219797	44.802126128737	0
459	220651	44.807126128737	0
459	222062	44.812126128737	0
459	223147	44.81804086094	0
459	223988	44.82304086094	0
459	226185	44.831266062244	0
459	227265	44.836266062244	0
459	228831	44.841266062244	0
459	231924	44.85796010183	0
459	232988	44.86296010183	0
459	236807	44.882657580719	0
459	237871	44.887657580719	0
459	238538	44.892657580719	0
459	239590	44.897657580719	0
459	240935	44.903721706271	0
459	241453	44.908721706271	0
459	242802	44.913721706271	0
459	243611	44.92042120563	0
459	244733	44.92542120563	0
459	245394	44.93042120563	0
459	246229	44.93542120563	0
459	246867	44.94042120563	0
459	248215	44.94676587618	0
459	249456	44.95176587618	0
459	250297	44.95676587618	0
459	251096	44.96176587618	0
459	252174	44.96676587618	0
459	252756	44.97176587618	0
459	253801	44.97676587618	0
459	255172	44.984697566895	0
459	255846	44.989697566895	0
459	256291	44.994697566895	0
459	256844	44.999697566895	0
459	257746	45.004697566895	0
459	258959	45.009932667468	0
459	259514	45.014932667468	0
459	259518	45.019932667468	0
459	260194	45.027725010469	0
459	261177	45.032725010469	0
459	261178	45.037725010469	0
459	261185	45.505	1
459	261195	45.51	0
459	263885	45.517966994811	54
459	265705	45.522966994811	0
459	267376	45.527966994811	0
459	268944	45.532966994811	0
459	270164	45.537966994811	0
459	272099	45.542966994811	0
459	273831	45.547966994811	0
459	275075	45.552966994811	0
459	276287	45.557966994811	0
459	277575	45.562966994811	0
459	279295	45.571708654037	0
459	280524	45.576708654037	0
459	282068	45.581708654037	0
459	283458	45.588250979214	0
459	284741	45.593250979214	0
459	286552	45.598782684432	0
459	287408	45.603782684432	0
459	292274	45.624450995629	0
459	293446	45.629450995629	0
459	294833	45.634450995629	0
459	300078	45.656938916381	0
459	301464	45.661938916381	0
459	304262	45.674139881496	0
459	305349	45.679139881496	0
459	306483	45.684479557849	0
459	307562	45.689479557849	0
459	308924	45.695611540885	0
459	310143	45.700611540885	0
459	313385	45.713218125777	0
459	314591	45.718218125777	0
459	316087	45.723218125777	0
459	317300	45.728218125777	0
459	319817	45.737748615152	0
459	320584	45.742748615152	0
459	322262	45.747786962409	0
459	323935	45.752786962409	0
459	325439	45.760086812754	0
459	326502	45.765086812754	0
459	327399	45.770086812754	0
459	328301	45.775086812754	0
459	329524	45.780086812754	0
459	332967	45.795206103995	0
459	333939	45.800206103995	0
459	335762	45.805206103995	0
459	337232	45.810206103995	0
459	338266	45.815206103995	0
459	339584	45.820206103995	0
459	341559	45.827736054437	0
459	342628	45.832736054437	0
459	344695	45.838542759568	0
459	345810	45.843542759568	0
459	346604	45.848542759568	0
459	348140	45.856721252681	0
459	349496	45.861721252681	0
459	350570	45.866721252681	0
459	351951	45.872632790008	0
459	352872	45.877632790008	0
459	354207	45.882632790008	0
459	355336	45.887632790008	0
459	356698	45.892632790008	0
459	357772	45.897632790008	0
459	359371	45.903209185833	0
459	360517	45.908209185833	0
459	362270	45.913209185833	0
459	363123	45.918209185833	0
459	364368	45.923209185833	0
459	365621	45.928209185833	0
459	366560	45.933209185833	0
459	367683	45.938209185833	0
459	368467	45.943209185833	0
459	372169	45.958908677744	0
459	372873	45.963908677744	0
459	373859	45.968908677744	0
459	375397	45.973908677744	0
459	376205	45.978908677744	0
459	376880	45.986212063388	0
459	377722	45.991212063388	0
459	378679	45.996212063388	0
459	380558	46.00684756393	0
459	381111	46.01184756393	0
459	382309	46.019177816719	0
459	383243	46.024177816719	0
459	384061	46.034009813131	0
459	384184	46.039009813131	0
459	384619	46.045212767121	0
459	384742	46.050212767121	0
459	385193	46.056410172407	0
459	385194	46.061410172407	0
459	385875	46.090056670679	0
459	386306	46.095056670679	0
459	386307	46.100056670679	0
459	386989	46.505	1
459	387944	46.51	31
459	390697	46.515	0
459	392310	46.52	0
459	394223	46.525	0
459	395325	46.53	0
459	396138	46.535	0
459	398273	46.543001060362	0
459	399454	46.548001060362	0
459	401332	46.553537894275	0
459	402832	46.558537894275	0
459	404447	46.563537894275	0
459	405688	46.568537894275	0
459	407386	46.573537894275	0
459	408337	46.578537894275	0
459	409249	46.583537894275	0
459	410309	46.588537894275	0
459	411102	46.593537894275	0
459	413548	46.604300799643	0
459	414378	46.609300799643	0
459	415300	46.614300799643	0
459	416924	46.619300799643	0
459	417967	46.624300799643	0
459	419776	46.629300799643	0
459	422388	46.641556518857	0
459	423199	46.646556518857	0
459	425573	46.655313082419	0
459	426770	46.660313082419	0
459	427693	46.665313082419	0
459	428996	46.671107132833	0
459	429672	46.676107132833	0
459	430509	46.681107132833	0
459	432484	46.6919873381	0
459	433676	46.6969873381	0
459	435029	46.705762516246	0
459	435863	46.710762516246	0
459	436275	46.715762516246	0
459	436665	46.720762516246	0
459	438156	46.729988665458	0
459	439630	46.734988665458	0
459	440149	46.739988665458	0
459	441524	46.751579920814	0
459	442602	46.756579920814	0
459	443725	46.761579920814	0
459	445154	46.766579920814	0
459	446122	46.771579920814	0
459	446907	46.776579920814	0
459	448375	46.781579920814	0
459	448788	46.786579920814	0
459	449749	46.791579920814	0
459	451183	46.796579920814	0
459	452252	46.801579920814	0
459	453050	46.806579920814	0
459	454785	46.819151093171	0
459	455624	46.824151093171	0
459	456280	46.829151093171	0
459	457872	46.838737266255	0
459	458454	46.843737266255	0
459	459718	46.848737266255	0
459	460778	46.853737266255	0
459	461219	46.859916435118	0
459	461754	46.864916435118	0
459	461877	46.869916435118	0
459	462559	47.505	1
459	462687	47.51	0
459	464044	47.515055231447	30
459	466246	47.520055231447	0
459	467422	47.525055231447	0
459	468567	47.530055231447	0
459	469522	47.535389319252	0
459	470727	47.540389319252	0
459	472319	47.545389319252	0
459	473731	47.550389319252	0
459	474829	47.555389319252	0
459	476115	47.560862755904	0
459	477405	47.565862755904	0
459	479027	47.570862755904	0
459	480086	47.575862755904	0
459	481098	47.580862755904	0
459	482426	47.586871032287	0
459	483592	47.591871032287	0
459	487013	47.613083082993	0
459	488105	47.618083082993	0
459	489026	47.623083082993	0
459	490466	47.628083082993	0
459	491378	47.633083082993	0
459	492213	47.638083082993	0
459	493151	47.643083082993	0
459	493407	47.648083082993	0
459	495518	47.660059073217	0
459	496467	47.665059073217	0
459	497277	47.673836754303	0
459	498336	47.678836754303	0
459	499509	47.683836754303	0
459	501057	47.691355284921	0
459	501633	47.696355284921	0
459	502274	47.701355284921	0
459	503376	47.706945337034	0
459	504491	47.711945337034	0
459	506456	47.720667109368	0
459	507543	47.725667109368	0
459	507930	47.730667109368	0
459	508729	47.73582236196	0
459	509711	47.74082236196	0
459	512631	47.76203038392	0
459	513553	47.76703038392	0
459	514514	47.77203038392	0
459	515178	47.77703038392	0
459	516785	47.786018013441	0
459	517722	47.791018013441	0
459	518655	47.796018013441	0
459	521539	47.816627087912	0
459	522597	47.821627087912	0
459	523555	47.82762734979	0
459	524502	47.83262734979	0
459	524934	47.83762734979	0
459	525884	47.84262734979	0
459	526683	47.84762734979	0
459	527102	47.852640239067	0
459	527772	47.857640239067	0
459	528171	47.862640239067	0
459	528976	47.867640239067	0
459	529817	47.877054302446	0
459	529818	47.882054302446	0
459	532182	47.946517623553	0
459	532183	47.951517623553	0
459	532185	47.968758239977	0
459	532186	47.973758239977	0
459	532418	48.505	1
459	532428	48.51	0
459	533478	48.517872423776	16
459	534570	48.522872423776	0
459	535460	48.527872423776	0
459	536536	48.532872423776	0
459	537751	48.537872423776	0
459	538925	48.542872423776	0
459	539625	48.547872423776	0
459	540034	48.552872423776	0
459	541261	48.558691519385	0
459	541899	48.563691519385	0
459	543101	48.568691519385	0
459	544976	48.584414139032	0
459	545636	48.589414139032	0
459	546853	48.594414139032	0
459	547644	48.599414139032	0
459	548020	48.604414139032	0
459	548938	48.61006268636	0
459	549628	48.61506268636	0
459	550323	48.62006268636	0
459	551133	48.62506268636	0
459	551886	48.63006268636	0
459	553297	48.635903540646	0
459	553932	48.640903540646	0
459	555130	48.6483885718	0
459	555253	48.6533885718	0
459	556328	48.660806710522	0
459	556329	48.665806710522	0
459	557355	48.676577956315	0
459	557754	48.681577956315	0
459	557883	48.686577956315	0
459	558506	48.713090304359	0
459	559172	48.718090304359	0
459	560056	48.723090304359	0
459	561272	48.75480588284	0
459	561273	48.75980588284	0
459	561673	49.505	1
459	564128	49.51	70
459	566939	49.515	0
459	568990	49.52	0
459	571879	49.528703752452	0
459	573754	49.533703752452	0
459	575415	49.538703752452	0
459	577515	49.543703752452	0
459	579470	49.548703752452	0
459	581734	49.553703752452	0
459	583573	49.558703752452	0
459	589302	49.574568156161	0
459	590801	49.579568156161	0
459	592257	49.584568156161	0
459	595473	49.593789151926	0
459	596836	49.598789151926	0
459	599294	49.606392582999	0
459	601161	49.611392582999	0
459	602749	49.616392582999	0
459	608571	49.635973420506	0
459	610021	49.640973420506	0
459	611405	49.645973420506	0
459	613216	49.65319384407	0
459	614243	49.65819384407	0
459	616574	49.663425423101	0
459	618373	49.668425423101	0
459	619328	49.673425423101	0
459	621628	49.68102541103	0
459	622762	49.68602541103	0
459	627442	49.699718638295	0
459	628674	49.704718638295	0
459	631913	49.71373506915	0
459	633416	49.71873506915	0
459	634672	49.72373506915	0
459	636607	49.72873506915	0
459	637865	49.73373506915	0
459	640168	49.741332899504	0
459	641919	49.746332899504	0
459	643677	49.751332899504	0
459	645459	49.756332899504	0
459	646735	49.761332899504	0
459	648764	49.766774519563	0
459	650052	49.771774519563	0
459	651634	49.776774519563	0
459	652843	49.781774519563	0
459	654264	49.786774519563	0
459	657262	49.795957999711	0
459	659018	49.800957999711	0
459	660843	49.805957999711	0
459	662248	49.810957999711	0
459	663996	49.815957999711	0
459	665533	49.820957999711	0
459	667131	49.825957999711	0
459	668395	49.830957999711	0
459	669752	49.835957999711	0
459	670955	49.840957999711	0
459	674646	49.854112305729	0
459	676009	49.859112305729	0
459	676732	49.864112305729	0
459	678075	49.869112305729	0
459	683167	49.889860652037	0
459	684437	49.894860652037	0
459	685797	49.899860652037	0
459	687308	49.905184607963	0
459	688261	49.910184607963	0
459	689472	49.915184607963	0
459	691229	49.920184607963	0
459	692676	49.925184607963	0
459	694394	49.930184607963	0
459	695988	49.935184607963	0
459	698577	49.945059515992	0
459	700160	49.950059515992	0
459	701786	49.955059515992	0
459	703578	49.960059515992	0
459	704700	49.965059515992	0
459	706235	49.970059515992	0
459	707643	49.975059515992	0
459	709142	49.980059515992	0
459	710506	49.985059515992	0
459	712464	49.993753116104	0
459	713411	49.998753116104	0
459	715618	50.007259656213	0
459	716595	50.012259656213	0
459	719535	50.025780491138	0
459	720624	50.030780491138	0
459	721569	50.035780491138	0
459	724936	50.052746617509	0
459	725993	50.057746617509	0
459	727187	50.064173606187	0
459	728139	50.069173606187	0
459	729406	50.074173606187	0
459	730531	50.079173606187	0
459	731437	50.084173606187	0
459	732220	50.089173606187	0
459	732822	50.094173606187	0
459	733937	50.099173606187	0
459	734465	50.104173606187	0
459	735103	50.116448252912	0
459	735681	50.121448252912	0
459	735805	50.126448252912	0
459	736381	50.131951709394	0
459	737103	50.136951709394	0
459	737104	50.141951709394	0
459	738302	50.166904925762	0
459	738303	50.171904925762	0
459	738310	50.505	1
459	738317	50.51	0
459	741204	50.518578298084	63
459	744281	50.523578298084	0
459	746040	50.528578298084	0
459	749648	50.539572873461	0
459	751334	50.544572873461	0
459	753535	50.549572873461	0
459	755022	50.554572873461	0
459	756871	50.559572873461	0
459	758737	50.564572873461	0
459	762645	50.57622763684	0
459	764019	50.58122763684	0
459	767754	50.592846525355	0
459	769674	50.597846525355	0
459	771757	50.602846525355	0
459	773286	50.607846525355	0
459	774684	50.612846525355	0
459	776061	50.618902668529	0
459	777700	50.623902668529	0
459	779106	50.628902668529	0
459	781281	50.636284213292	0
459	782581	50.641284213292	0
459	784143	50.646284213292	0
459	786271	50.654284562543	0
459	787882	50.659284562543	0
459	789931	50.667828223687	0
459	791222	50.672828223687	0
459	792395	50.678241764299	0
459	793637	50.683241764299	0
459	799516	50.703658053011	0
459	801184	50.708658053011	0
459	802817	50.713658053011	0
459	805237	50.723105057074	0
459	806962	50.728105057074	0
459	808546	50.733105057074	0
459	809782	50.738541509359	0
459	811184	50.743541509359	0
459	817409	50.765994065938	0
459	818698	50.770994065938	0
459	820207	50.775994065938	0
459	822577	50.781616350878	0
459	824332	50.786616350878	0
459	826626	50.795450941604	0
459	827757	50.800450941604	0
459	829503	50.805450941604	0
459	830899	50.810450941604	0
459	832391	50.815450941604	0
459	833775	50.820450941604	0
459	835449	50.825450941604	0
459	837282	50.830450941604	0
459	838269	50.835450941604	0
459	839804	50.840450941604	0
459	840730	50.845450941604	0
459	842146	50.850764580472	0
459	843468	50.855764580472	0
459	845165	50.860764580472	0
459	847234	50.868234455987	0
459	848104	50.873234455987	0
459	851105	50.883977225422	0
459	852582	50.888977225422	0
459	854436	50.893977225422	0
459	855359	50.898977225422	0
459	856718	50.904091265193	0
459	858668	50.909091265193	0
459	859882	50.915608687548	0
459	861151	50.920608687548	0
459	861980	50.925608687548	0
459	863487	50.930608687548	0
459	864480	50.935608687548	0
459	865687	50.940608687548	0
459	868783	50.955094663695	0
459	869876	50.960094663695	0
459	871439	50.969498887811	0
459	873052	50.974498887811	0
459	873998	50.979498887811	0
459	876411	50.997274065936	0
459	877519	51.002274065936	0
459	878638	51.008316659929	0
459	879629	51.013316659929	0
459	880688	51.018316659929	0
459	881543	51.023316659929	0
459	881675	51.028316659929	0
459	882883	51.033316659929	0
459	883883	51.038316659929	0
459	884476	51.043316659929	0
459	884477	51.048316659929	0
459	885353	51.05756639208	0
459	885779	51.06256639208	0
459	886808	51.068489280202	0
459	887778	51.073489280202	0
459	888773	51.078489280202	0
459	889315	51.083489280202	0
459	889859	51.088907165767	0
459	889861	51.093907165767	0
459	891382	51.110006268064	0
459	892149	51.115006268064	0
459	892741	51.120006268064	0
459	893264	51.125006268064	0
459	894522	51.133984208481	0
459	894963	51.138984208481	0
459	894966	51.143984208481	0
459	896113	51.152212627721	0
459	896806	51.157212627721	0
459	898416	51.17430824496	0
459	898417	51.17930824496	0
459	898430	51.505	1
459	898552	51.51	0
459	900418	51.515426915182	35
459	901938	51.520426915182	0
459	902520	51.525426915182	0
459	903832	51.530631960859	0
459	904615	51.535631960859	0
459	906470	51.540631960859	0
459	907436	51.545631960859	0
459	909098	51.550631960859	0
459	910087	51.555631960859	0
459	910963	51.560631960859	0
459	912224	51.565631960859	0
459	915556	51.583160444175	0
459	916508	51.588160444175	0
459	918000	51.593160444175	0
459	919265	51.598160444175	0
459	919920	51.603160444175	0
459	922304	51.616011750551	0
459	923256	51.621011750551	0
459	925510	51.631418459011	0
459	926480	51.636418459011	0
459	927793	51.641418459011	0
459	928939	51.646418459011	0
459	929754	51.651418459011	0
459	931686	51.656925196007	0
459	932813	51.661925196007	0
459	933965	51.669079353796	0
459	934950	51.674079353796	0
459	935923	51.679079353796	0
459	936812	51.684079353796	0
459	938105	51.692590213042	0
459	939252	51.697590213042	0
459	940615	51.702590213042	0
459	941813	51.707590213042	0
459	942384	51.712590213042	0
459	945022	51.728069394791	0
459	946543	51.733069394791	0
459	947399	51.738069394791	0
459	948348	51.743069394791	0
459	949371	51.748069394791	0
459	950335	51.753069394791	0
459	951586	51.758069394791	0
459	952824	51.763069394791	0
459	953715	51.768069394791	0
459	954769	51.773069394791	0
459	955706	51.778069394791	0
459	956562	51.783069394791	0
459	957608	51.788069394791	0
459	958179	51.793069394791	0
459	958746	51.798069394791	0
459	959305	51.803069394791	0
459	959983	51.808069394791	0
459	961155	51.813069394791	0
459	961593	51.818069394791	0
459	961594	51.823069394791	0
459	962274	51.832139778042	0
459	962998	51.837139778042	0
459	963278	51.842139778042	0
459	964387	51.858880969104	0
459	964955	51.863880969104	0
459	964959	51.868880969104	0
459	966465	51.899400999514	0
459	966594	51.904400999514	0
459	966857	52.505	1
459	966867	52.51	0
459	968460	52.517805826025	33
459	969804	52.522805826025	0
459	971716	52.527805826025	0
459	973656	52.532805826025	0
459	974736	52.537805826025	0
459	975726	52.542805826025	0
459	976845	52.547805826025	0
459	978322	52.552805826025	0
459	979965	52.557805826025	0
459	980974	52.562805826025	0
459	982322	52.567805826025	0
459	983452	52.572805826025	0
459	984763	52.577805826025	0
459	985767	52.582805826025	0
459	987002	52.587805826025	0
459	988306	52.592805826025	0
459	989219	52.597805826025	0
459	990765	52.613491061484	0
459	992308	52.618491061484	0
459	993020	52.623491061484	0
459	994558	52.628706339327	0
459	995140	52.633706339327	0
459	996364	52.638706339327	0
459	997768	52.644426362261	0
459	998943	52.649426362261	0
459	999773	52.654426362261	0
459	1001169	52.659479644951	0
459	1002418	52.664479644951	0
459	1003267	52.669479644951	0
459	1004206	52.674479644951	0
459	1005356	52.6802305339	0
459	1006190	52.6852305339	0
459	1007403	52.692124128384	0
459	1008124	52.697124128384	0
459	1011461	52.711309945665	0
459	1012464	52.716309945665	0
459	1013647	52.721309945665	0
459	1015071	52.726309945665	0
459	1016031	52.731309945665	0
459	1017388	52.736309945665	0
459	1018264	52.741309945665	0
459	1019366	52.749467417247	0
459	1019933	52.754467417247	0
459	1021063	52.759467417247	0
459	1022199	52.764467417247	0
459	1023299	52.769467417247	0
459	1024583	52.774467417247	0
459	1025991	52.779467417247	0
459	1026271	52.784467417247	0
459	1028000	52.793929943891	0
459	1028689	52.798929943891	0
459	1030227	52.803929943891	0
459	1031316	52.808929943891	0
459	1031772	52.813929943891	0
459	1031779	52.818929943891	0
459	1032358	52.825815497136	0
459	1033028	52.830815497136	0
459	1035207	52.931027731421	0
459	1035208	52.936027731421	0
459	1035760	52.951336685314	0
459	1035761	52.956336685314	0
459	1036150	53.505	1
459	1037904	53.51	37
459	1039557	53.515	0
459	1041626	53.52	0
459	1042756	53.525	0
459	1044308	53.53	0
459	1046695	53.535	0
459	1047946	53.54	0
459	1049084	53.545	0
459	1050665	53.55	0
459	1051652	53.555	0
459	1052942	53.56	0
459	1054617	53.565	0
459	1055496	53.57	0
459	1056689	53.575	0
459	1057987	53.58	0
459	1058756	53.585	0
459	1060257	53.59	0
459	1062345	53.599722711815	0
459	1063359	53.604722711815	0
459	1064815	53.610016275717	0
459	1065839	53.615016275717	0
459	1067455	53.622718225691	0
459	1068502	53.627718225691	0
459	1069319	53.632718225691	0
459	1070217	53.637824287663	0
459	1070913	53.642824287663	0
459	1073471	53.65460075131	0