version 2
run AODVScenario_1f-12-20121121-14:45:42-5128
attr configname AODVScenario_1f
attr datetime 20121121-14:45:42
attr experiment AODVScenario_1f
attr inifile AODV.ini
attr iterationvars $numNodes=62
attr iterationvars2 "$numNodes=62, $repetition=0"
attr measurement $numNodes=62
attr network csma802154net
attr numNodes 62
attr processid 5128
attr repetition 0
attr replication #0
attr resultdir results
attr runnumber 12
attr seedset 12

vector 259  csma802154net.dataCentricNetworkMan  RREQPacketFrequency  ETV
vector 260  csma802154net.dataCentricNetworkMan  RERRPacketFrequency  ETV
vector 261  csma802154net.dataCentricNetworkMan  DiscoveryPacketFrequency  ETV
vector 262  csma802154net.dataCentricNetworkMan  RegisterPacketFrequency  ETV
vector 263  csma802154net.dataCentricNetworkMan  RReplyPacketFrequency  ETV
vector 264  csma802154net.dataCentricNetworkMan  AODVDataPacketFrequency  ETV
vector 271  csma802154net.dataCentricNetworkMan  pendingRegistrationVector  ETV
vector 270  csma802154net.dataCentricNetworkMan  pendingRREQVector  ETV
vector 268  csma802154net.dataCentricNetworkMan  PendingDataPacketsVector  ETV
vector 282  csma802154net.fixhost[10].udpApp  "End-to-end delay"  ETV
vector 256  csma802154net.dataCentricNetworkMan  dataPacketE2EDelay  ETV
vector 292  csma802154net.fixhost[20].udpApp  "End-to-end delay"  ETV
vector 298  csma802154net.fixhost[26].udpApp  "End-to-end delay"  ETV
vector 276  csma802154net.fixhost[4].udpApp  "End-to-end delay"  ETV
vector 277  csma802154net.fixhost[5].udpApp  "End-to-end delay"  ETV
vector 274  csma802154net.fixhost[2].udpApp  "End-to-end delay"  ETV
vector 278  csma802154net.fixhost[6].udpApp  "End-to-end delay"  ETV
vector 283  csma802154net.fixhost[11].udpApp  "End-to-end delay"  ETV
vector 281  csma802154net.fixhost[9].udpApp  "End-to-end delay"  ETV
vector 284  csma802154net.fixhost[12].udpApp  "End-to-end delay"  ETV
vector 287  csma802154net.fixhost[15].udpApp  "End-to-end delay"  ETV
256	443726	70.007716029564	0.007716029564
256	444376	70.016276066993	0.016276066993
256	444692	70.021004087074	0.021004087074
256	447095	71.031196093428	0.031196093428
256	447410	71.033116103531	0.033116103531
256	449834	72.031164085813	0.031164085813
256	450218	72.036284101121	0.036284101121
256	450860	72.064652132936	0.064652132936
256	453352	73.066756076205	0.066756076205
256	454106	73.077844103483	0.077844103483
256	455414	73.100524123191	0.100524123191
256	531959	670.008036029565	0.008036029565
256	532592	670.016916087075	0.016916087075
256	532924	670.022284066994	0.022284066994
256	535172	671.027076074748	0.027076074748
256	535639	671.031516084851	0.031516084851
256	538449	672.05292410112	0.05292410112
256	539390	672.058932085812	0.058932085812
256	539702	672.064972132935	0.064972132935
256	541958	673.025796076204	0.025796076204
256	543080	673.053204103482	0.053204103482
256	544060	673.082532123189	0.082532123189
256	620605	1270.008356029565	0.008356029565
256	621234	1270.016596087076	0.016596087076
256	621565	1270.019796066995	0.019796066995
256	623662	1271.026756074749	0.026756074749
256	624284	1271.032764075506	0.032764075506
256	626443	1272.027716101122	0.027716101122
256	627722	1272.055660085812	0.055660085812
256	628034	1272.059780132936	0.059780132936
256	630290	1273.027716076206	0.027716076206
256	631282	1273.056084103484	0.056084103484
256	632256	1273.06589212319	0.06589212319
256	708864	1870.010916029564	0.010916029564
256	709496	1870.020436087075	0.020436087075
256	709828	1870.025484066994	0.025484066994
256	711993	1871.026756074749	0.026756074749
256	712696	1871.059572075506	0.059572075506
256	714865	1872.028676085814	0.028676085814
256	715797	1872.058644129915	0.058644129915
256	716127	1872.062764158928	0.062764158928
256	719040	1873.032404103484	0.032404103484
256	719373	1873.034932076205	0.034932076205
256	720695	1873.064612123191	0.064612123191
256	797240	2470.008676029565	0.008676029565
256	797869	2470.015956087076	0.015956087076
256	798200	2470.018836066995	0.018836066995
256	800604	2471.030876093429	0.030876093429
256	800921	2471.033116103532	0.033116103532
256	803090	2472.026436085814	0.026436085814
256	803846	2472.049404101122	0.049404101122
256	804490	2472.078412132937	0.078412132937
256	806759	2473.025156076206	0.025156076206
256	807720	2473.032724103484	0.032724103484
256	808700	2473.062692123191	0.062692123191
256	885245	3070.008676029565	0.008676029565
256	885895	3070.016596066995	0.016596066995
256	886211	3070.020364087076	0.020364087076
256	888437	3071.029956074749	0.029956074749
256	889066	3071.054204075506	0.054204075506
256	891235	3072.027716085814	0.027716085814
256	891861	3072.051644101122	0.051644101122
256	892501	3072.059212132937	0.059212132937
256	894627	3073.027716076205	0.027716076205
256	895902	3073.037844103483	0.037844103483
256	896574	3073.04516412319	0.04516412319
256	973181	3670.008996029564	0.008996029564
256	973814	3670.017236087074	0.017236087074
256	974146	3670.022284066993	0.022284066993
256	976543	3671.030556103532	0.030556103532
256	976872	3671.036884093428	0.036884093428
256	979052	3672.025476085813	0.025476085813
256	979809	3672.054452101121	0.054452101121
256	980453	3672.083140132936	0.083140132936
256	982709	3673.027716076205	0.027716076205
256	983995	3673.055444103483	0.055444103483
256	984667	3673.06365212319	0.06365212319
256	1061212	4270.008996029564	0.008996029564
256	1061862	4270.018516066993	0.018516066993
256	1062178	4270.022924087073	0.022924087073
256	1064276	4271.028996074749	0.028996074749
256	1064895	4271.033724075504	0.033724075504
256	1066931	4272.025476101122	0.025476101122
256	1067572	4272.031444132937	0.031444132937
256	1068231	4272.040620085811	0.040620085811
256	1070623	4273.041476076204	0.041476076204
256	1071605	4273.048724103481	0.048724103481
256	1072277	4273.056684123187	0.056684123187
256	1148822	4870.008036029565	0.008036029565
256	1149602	4870.018836066995	0.018836066995
256	1149923	4870.044044087076	0.044044087076
256	1152170	4871.026116074749	0.026116074749
256	1152637	4871.031196084851	0.031196084851
256	1155572	4872.026436085814	0.026436085814
256	1155897	4872.050044101121	0.050044101121
256	1156536	4872.057612132936	0.057612132936
256	1159594	4873.033364103484	0.033364103484
256	1159937	4873.053492076206	0.053492076206
256	1160923	4873.065252123191	0.065252123191
256	1237530	5470.006436029565	0.006436029565
256	1238162	5470.014676087075	0.014676087075
256	1238494	5470.018764066994	0.018764066994
256	1240889	5471.029276103532	0.029276103532
256	1241218	5471.032404093429	0.032404093429
256	1243713	5472.026684085814	0.026684085814
256	1244020	5472.028284101122	0.028284101122
256	1244985	5472.054804132937	0.054804132937
256	1248177	5473.030844076206	0.030844076206
256	1248860	5473.04157212319	0.04157212319
256	1249542	5473.059212103483	0.059212103483
256	1326076	6070.010276029565	0.010276029565
256	1326708	6070.020116087076	0.020116087076
256	1327040	6070.024844066995	0.024844066995
256	1329441	6071.026756074748	0.026756074748
256	1329758	6071.029244075505	0.029244075505
256	1331934	6072.028356085813	0.028356085813
256	1332871	6072.05516410112	0.05516410112
256	1333511	6072.063372132936	0.063372132936
256	1336248	6073.032516076204	0.032516076204
256	1336932	6073.03979612319	0.03979612319
256	1337613	6073.054980103481	0.054980103481
256	1414146	6670.007716029565	0.007716029565
256	1414778	6670.016596087075	0.016596087075
256	1415106	6670.018836066995	0.018836066995
256	1417511	6671.035036093427	0.035036093427
256	1417826	6671.03695610353	0.03695610353
256	1419995	6672.025476085813	0.025476085813
256	1420620	6672.049404101122	0.049404101122
256	1421254	6672.055124132937	0.055124132937
256	1423510	6673.026436076203	0.026436076203
256	1424504	6673.054804103482	0.054804103482
256	1425474	6673.064612123188	0.064612123188
256	1502081	7270.008356029565	0.008356029565
256	1502731	7270.016276066995	0.016276066995
256	1503047	7270.022924087076	0.022924087076
256	1505450	7271.031196093429	0.031196093429
256	1505767	7271.033756103531	0.033756103531
256	1508110	7272.024196085814	0.024196085814
256	1508421	7272.026116101122	0.026116101122
256	1509057	7272.033364132937	0.033364132937
256	1511313	7273.027396076206	0.027396076206
256	1512752	7273.061484123191	0.061484123191
256	1513762	7273.087300103483	0.087300103483
259	489	1.005	1
259	567	1.01	0
259	918	1.01603347844	20
259	1259	1.02103347844	33
259	1812	1.02603347844	45
259	2864	1.03103347844	58
259	3994	1.03603347844	61
259	5249	1.04103347844	48
259	6411	1.04603347844	41
259	7357	1.05103347844	28
259	8045	1.05603347844	40
259	8574	1.06103347844	40
259	8998	1.06603347844	34
259	9261	1.07103347844	26
259	9524	1.07603347844	27
259	9531	1.08103347844	0
259	10057	1.088855432686	27
259	10307	1.093855432686	25
259	10308	1.098855432686	0
259	15774	43.505	1
259	16657	43.51	19
259	17263	43.515	0
259	18055	43.52	0
259	18653	43.525	0
259	18966	43.53	0
259	19627	43.535	0
259	20132	43.54	0
259	20812	43.545983476136	0
259	21451	43.550983476136	0
259	21891	43.555983476136	0
259	22259	43.560983476136	0
259	23299	43.572603887759	0
259	23604	43.577603887759	0
259	23974	43.582603887759	0
259	24489	43.587603887759	0
259	25214	43.59499331511	0
259	25638	43.59999331511	0
259	26166	43.608099919833	0
259	26666	43.613099919833	0
259	27125	43.618107702982	0
259	28112	43.623107702982	0
259	28477	43.628107702982	0
259	28962	43.633107702982	0
259	30063	43.646244945212	0
259	30358	43.651244945212	0
259	30596	43.657944163454	0
259	30957	43.662944163454	0
259	31327	43.668747174645	0
259	31328	43.673747174645	0
259	31711	43.682867894134	0
259	32294	43.687867894134	0
259	32791	43.692867894134	0
259	33219	43.702867912054	0
259	33645	43.707867912054	0
259	34244	43.715249307251	0
259	34607	43.720249307251	0
259	35071	43.726665344668	0
259	35375	43.731665344668	0
259	35746	43.739739184835	0
259	35747	43.744739184835	0
259	36314	43.781673073721	0
259	36315	43.786673073721	0
259	36707	44.505	23
259	37491	44.51	0
259	38719	44.515	0
259	39535	44.52	0
259	40005	44.525	0
259	40330	44.53	0
259	40875	44.535	0
259	41560	44.54	0
259	42256	44.545	0
259	42845	44.55	0
259	43588	44.555	0
259	44269	44.56	0
259	44666	44.565	0
259	45637	44.571589700015	0
259	46315	44.576589700015	0
259	46632	44.581589700015	0
259	47083	44.586589700015	0
259	47882	44.591589700015	0
259	48494	44.596589700015	0
259	48566	44.601589700015	0
259	48950	44.607098741381	0
259	49447	44.612098741381	0
259	49963	44.617098741381	0
259	50604	44.622598758329	0
259	51109	44.627598758329	0
259	51484	44.633044091981	0
259	51793	44.638044091981	0
259	52622	44.644183494428	0
259	53216	44.649183494428	0
259	54529	44.671910770928	0
259	54986	44.676910770928	0
259	56100	44.689623347469	0
259	56277	44.694623347469	0
259	56778	44.699623347469	0
259	57232	44.704623347469	0
259	57614	44.709623347469	0
259	58194	44.714623347469	0
259	58732	44.719623347469	0
259	59413	44.726639700683	0
259	59699	44.731639700683	0
259	60007	44.736887554676	0
259	60304	44.741887554676	0
259	60516	44.746887554676	0
259	61027	44.761026370605	0
259	61104	44.766026370605	0
259	61558	44.785462480079	0
259	61705	44.790462480079	0
259	62430	44.861773287923	0
259	62730	44.866773287923	0
259	62731	44.871773287923	0
259	63034	44.893810394764	0
259	63035	44.898810394764	0
259	63173	45.505	1
259	63422	45.51	23
259	64347	45.515	0
259	65304	45.52	0
259	66065	45.525	0
259	66397	45.53	0
259	66770	45.535	0
259	67921	45.544656421437	0
259	68585	45.549656421437	0
259	69040	45.554656421437	0
259	69416	45.559656421437	0
259	70150	45.565548734664	0
259	70821	45.570548734664	0
259	71962	45.580341146861	0
259	72481	45.585341146861	0
259	73484	45.594258796619	0
259	74118	45.599258796619	0
259	75128	45.606530826226	0
259	75654	45.611530826226	0
259	76665	45.625797975371	0
259	77123	45.630797975371	0
259	78877	45.651533169476	0
259	79635	45.656533169476	0
259	80310	45.661533169476	0
259	80975	45.666533169476	0
259	81656	45.671533169476	0
259	82005	45.676533169476	0
259	84354	45.703535147906	0
259	85006	45.708535147906	0
259	85630	45.714850949286	0
259	86044	45.719850949286	0
259	86421	45.724850949286	0
259	86942	45.729850949286	0
259	87534	45.734850949286	0
259	88048	45.739850949286	0
259	88507	45.744850949286	0
259	89099	45.749850949286	0
259	90102	45.761762969454	0
259	90532	45.766762969454	0
259	91744	45.781935177976	0
259	92135	45.786935177976	0
259	92687	45.791935177976	0
259	93059	45.796935177976	0
259	93909	45.806059361482	0
259	94216	45.811059361482	0
259	94504	45.816059361482	0
259	95639	45.830277998646	0
259	95707	45.835277998646	0
259	96614	45.846685177595	0
259	96620	45.851685177595	0
259	97294	45.868489207763	0
259	97750	45.873489207763	0
259	98220	45.878489207763	0
259	98446	45.883489207763	0
259	99066	45.902577801238	0
259	99362	45.907577801238	0
259	99998	45.935357371194	0
259	99999	45.940357371194	0
259	100131	46.505	1
259	100209	46.51	0
259	101126	46.516048955887	21
259	102099	46.521048955887	0
259	102991	46.526048955887	0
259	103692	46.531048955887	0
259	104437	46.536048955887	0
259	104845	46.541048955887	0
259	106804	46.560679721534	0
259	107273	46.565679721534	0
259	107985	46.570679721534	0
259	108477	46.575679721534	0
259	109130	46.580679721534	0
259	109791	46.585679721534	0
259	110714	46.594263474531	0
259	111094	46.599263474531	0
259	111554	46.604263474531	0
259	113639	46.624979357402	0
259	114106	46.629979357402	0
259	114746	46.634979357402	0
259	115588	46.641825696804	0
259	116425	46.646825696804	0
259	116923	46.651825696804	0
259	117537	46.656825696804	0
259	117906	46.661825696804	0
259	118900	46.670415491466	0
259	119576	46.675415491466	0
259	119887	46.680415491466	0
259	120460	46.688734530471	0
259	121222	46.693734530471	0
259	121985	46.698734530471	0
259	122616	46.703734530471	0
259	123594	46.713862584995	0
259	124055	46.718862584995	0
259	124746	46.723862584995	0
259	124912	46.728862584995	0
259	125219	46.734062561594	0
259	125677	46.739062561594	0
259	127405	46.756701902899	0
259	127413	46.761701902899	0
259	129305	46.783466360362	0
259	129377	46.788466360362	0
259	130078	46.794761709591	0
259	130396	46.799761709591	0
259	130849	46.804761709591	0
259	131220	46.809761709591	0
259	131442	46.814761709591	0
259	131745	46.822481559762	0
259	131748	46.827481559762	0
259	132368	46.867810379379	0
259	132369	46.872810379379	0
259	132681	46.902280031221	0
259	132682	46.907280031221	0
259	132820	47.505	1
259	133141	47.51	22
259	134140	47.515	0
259	135025	47.52	0
259	135575	47.525	0
259	136604	47.534389218778	0
259	137081	47.539389218778	0
259	138172	47.547811251423	0
259	138645	47.552811251423	0
259	139095	47.557811251423	0
259	140303	47.568929359605	0
259	140764	47.573929359605	0
259	141406	47.579568617264	0
259	142081	47.584568617264	0
259	142617	47.589568617264	0
259	143199	47.594568617264	0
259	143706	47.599568617264	0
259	144980	47.61002559084	0
259	145371	47.61502559084	0
259	145897	47.62002559084	0
259	146281	47.62502559084	0
259	147335	47.635850450981	0
259	147567	47.640850450981	0
259	148177	47.647983679154	0
259	148632	47.652983679154	0
259	149535	47.660946870708	0
259	149853	47.665946870708	0
259	150254	47.670946870708	0
259	150957	47.675946870708	0
259	151626	47.680946870708	0
259	152263	47.685946870708	0
259	152818	47.690946870708	0
259	153264	47.695946870708	0
259	153642	47.700946870708	0
259	154049	47.710192279795	0
259	154361	47.715192279795	0
259	154437	47.720192279795	0
259	155003	47.72587024029	0
259	155310	47.73087024029	0
259	155462	47.73587024029	0
259	155839	47.74087024029	0
259	156387	47.74587024029	0
259	156601	47.75087024029	0
259	156906	47.75587024029	0
259	157289	47.76087024029	0
259	157293	47.76587024029	0
259	157609	47.774012403113	0
259	157932	47.779012403113	0
259	157933	47.784012403113	0
259	158559	47.895468973174	0
259	158560	47.900468973174	0
259	158769	48.505	1
259	160130	48.51	34
259	161261	48.515	0
259	162496	48.52	0
259	163222	48.525	0
259	163798	48.53	0
259	164557	48.535	0
259	165590	48.54	0
259	166364	48.545	0
259	167265	48.55	0
259	168096	48.557184596358	0
259	168785	48.562184596358	0
259	171959	48.584555722682	0
259	172809	48.589555722682	0
259	173424	48.594555722682	0
259	174440	48.599656962769	0
259	175142	48.604656962769	0
259	175768	48.609656962769	0
259	176164	48.614656962769	0
259	177238	48.621984188088	0
259	177780	48.626984188088	0
259	178695	48.632186996593	0
259	179295	48.637186996593	0
259	180178	48.644342122632	0
259	180897	48.649342122632	0
259	181682	48.654342122632	0
259	184217	48.675876672191	0
259	184827	48.680876672191	0
259	185466	48.685876672191	0
259	185953	48.690876672191	0
259	186470	48.695876672191	0
259	186942	48.700876672191	0
259	187640	48.705876672191	0
259	188133	48.710876672191	0
259	188621	48.715876672191	0
259	189301	48.720876672191	0
259	189545	48.725876672191	0
259	190007	48.731006206277	0
259	190715	48.736006206277	0
259	191412	48.741006206277	0
259	192278	48.749187017375	0
259	192748	48.754187017375	0
259	193124	48.759187017375	0
259	193867	48.765337459864	0
259	194517	48.770337459864	0
259	194911	48.775337459864	0
259	195325	48.780337459864	0
259	196125	48.785337459864	0
259	196366	48.790337459864	0
259	196932	48.795838632898	0
259	197241	48.800838632898	0
259	197582	48.812323240449	0
259	197917	48.817323240449	0
259	198367	48.822323240449	0
259	199296	48.828576981811	0
259	199368	48.833576981811	0
259	199606	48.839179285526	0
259	199688	48.844179285526	0
259	200449	48.849416192834	0
259	200776	48.854416192834	0
259	201112	48.859416192834	0
259	201367	48.864416192834	0
259	201510	48.869416192834	0
259	202170	48.879493251024	0
259	202336	48.884493251024	0
259	202679	48.896284972092	0
259	203017	48.901284972092	0
259	203024	48.906284972092	0
259	203346	48.913070987812	0
259	203347	48.918070987812	0
259	203575	49.505	1
259	203877	49.51	10
259	204795	49.515	0
259	205256	49.52	0
259	205788	49.525	0
259	206175	49.53	0
259	206416	49.535	0
259	207061	49.54	0
259	207310	49.545	0
259	207759	49.55	0
259	208451	49.555	0
259	209020	49.56	0
259	209402	49.565	0
259	210116	49.57	0
259	210574	49.575	0
259	211239	49.58	0
259	211700	49.585	0
259	212224	49.59	0
259	212382	49.595	0
259	214330	49.626356083002	0
259	214646	49.631356083002	0
259	215681	49.639900143966	0
259	215999	49.644900143966	0
259	216289	49.649900143966	0
259	216361	49.654900143966	0
259	217182	49.672486974778	0
259	217470	49.677486974778	0
259	217474	49.682486974778	0
259	217628	50.505	1
259	217635	50.51	0
259	218733	50.520274072464	29
259	219986	50.525274072464	0
259	221028	50.530274072464	0
259	221816	50.535274072464	0
259	222460	50.540274072464	0
259	223190	50.545274072464	0
259	224024	50.550274072464	0
259	224501	50.555274072464	0
259	225367	50.560274072464	0
259	228864	50.591787347592	0
259	229124	50.596787347592	0
259	230047	50.601787347592	0
259	230686	50.606787347592	0
259	231649	50.617976073989	0
259	231924	50.622976073989	0
259	232594	50.627976073989	0
259	234836	50.646344667091	0
259	235644	50.651344667091	0
259	237874	50.666748873681	0
259	238881	50.671748873681	0
259	239395	50.676748873681	0
259	240121	50.681748873681	0
259	240885	50.686748873681	0
259	241968	50.692944795632	0
259	242702	50.697944795632	0
259	243293	50.702944795632	0
259	243846	50.707944795632	0
259	244503	50.712944795632	0
259	245342	50.717944795632	0
259	245849	50.722944795632	0
259	246740	50.730100349559	0
259	247318	50.735100349559	0
259	248016	50.740100349559	0
259	248486	50.745100349559	0
259	249091	50.750100349559	0
259	249844	50.755100349559	0
259	250230	50.760100349559	0
259	250709	50.765201211754	0
259	251254	50.770201211754	0
259	251654	50.777182070949	0
259	252075	50.782182070949	0
259	252409	50.787182070949	0
259	252955	50.792182070949	0
259	254335	50.810862331815	0
259	254809	50.815862331815	0
259	256437	50.829465201297	0
259	256694	50.834465201297	0
259	257039	50.839465201297	0
259	257490	50.844465201297	0
259	258376	50.857723319134	0
259	258767	50.862723319134	0
259	259227	50.867723319134	0
259	260054	50.887572081001	0
259	260390	50.892572081001	0
259	260463	50.897572081001	0
259	261290	50.936487897819	0
259	261699	50.941487897819	0
259	261991	50.946487897819	0
259	262146	51.505	1
259	262224	51.51	0
259	263682	51.515200134579	37
259	265002	51.520200134579	0
259	266133	51.525200134579	0
259	267135	51.530200134579	0
259	267787	51.535200134579	0
259	268659	51.540200134579	0
259	269955	51.548867329588	0
259	270897	51.553867329588	0
259	271914	51.558867329588	0
259	272526	51.563867329588	0
259	273669	51.571470658986	0
259	274344	51.576470658986	0
259	275382	51.581470658986	0
259	276118	51.586470658986	0
259	277170	51.591791687432	0
259	277884	51.596791687432	0
259	278697	51.602537725029	0
259	279409	51.607537725029	0
259	280262	51.612537725029	0
259	281220	51.617537725029	0
259	281783	51.622537725029	0
259	283259	51.632558262676	0
259	283805	51.637558262676	0
259	285092	51.645917392326	0
259	285808	51.650917392326	0
259	286682	51.655917392326	0
259	287219	51.660917392326	0
259	288812	51.673360480989	0
259	289860	51.678360480989	0
259	290512	51.683360480989	0
259	291449	51.690360424821	0
259	292377	51.695360424821	0
259	293707	51.70549999747	0
259	294424	51.71049999747	0
259	295163	51.71549999747	0
259	295925	51.72049999747	0
259	296426	51.72549999747	0
259	297119	51.73049999747	0
259	297744	51.73549999747	0
259	298566	51.74049999747	0
259	298972	51.74549999747	0
259	299756	51.75049999747	0
259	300514	51.75549999747	0
259	301233	51.76049999747	0
259	301819	51.76549999747	0
259	302778	51.774042436314	0
259	303365	51.779042436314	0
259	303773	51.784042436314	0
259	304446	51.791993006944	0
259	305030	51.796993006944	0
259	305602	51.801993006944	0
259	306322	51.812300542594	0
259	306729	51.817300542594	0
259	307137	51.822300542594	0
259	307714	51.827300542594	0
259	308297	51.832300542594	0
259	308613	51.837300542594	0
259	308958	51.843234515743	0
259	309373	51.848234515743	0
259	309798	51.853234515743	0
259	310345	51.858234515743	0
259	310946	51.867655026444	0
259	311022	51.872655026444	0
259	311258	51.877655026444	0
259	311500	51.882655026444	0
259	312247	51.893376033889	0
259	312407	51.898376033889	0
259	312750	51.912964932708	0
259	312751	51.917964932708	0
259	313095	51.932696039587	0
259	313096	51.937696039587	0
259	313436	51.957936055307	0
259	313508	51.962936055307	0
259	314062	51.9684560705	0
259	314063	51.9734560705	0
259	314216	52.505	1
259	314294	52.51	0
259	315546	52.515911667433	32
259	316707	52.520911667433	0
259	317474	52.525911667433	0
259	318238	52.530911667433	0
259	319220	52.535911667433	0
259	319831	52.540911667433	0
259	320736	52.545911667433	0
259	322443	52.559640106717	0
259	322916	52.564640106717	0
259	323920	52.569640106717	0
259	324817	52.574640106717	0
259	325553	52.579640106717	0
259	325999	52.584640106717	0
259	326495	52.589640106717	0
259	327230	52.594640106717	0
259	327976	52.599640106717	0
259	329096	52.604640106717	0
259	329599	52.609640106717	0
259	331695	52.628923788852	0
259	332261	52.633923788852	0
259	333152	52.638923788852	0
259	333926	52.643923788852	0
259	334580	52.648923788852	0
259	335326	52.653923788852	0
259	335846	52.658923788852	0
259	338595	52.68165305044	0
259	339283	52.68665305044	0
259	339823	52.69165305044	0
259	340420	52.69665305044	0
259	340919	52.70165305044	0
259	341265	52.70665305044	0
259	342011	52.712404356368	0
259	342744	52.717404356368	0
259	343698	52.722404356368	0
259	344197	52.727404356368	0
259	344778	52.732404356368	0
259	345258	52.737404356368	0
259	345945	52.742404356368	0
259	346578	52.747404356368	0
259	347098	52.752404356368	0
259	347671	52.757404356368	0
259	348035	52.762404356368	0
259	348463	52.767404356368	0
259	349108	52.772404356368	0
259	349748	52.777404356368	0
259	350723	52.782404356368	0
259	351192	52.791763172692	0
259	351598	52.796763172692	0
259	352234	52.801763172692	0
259	353607	52.811422559446	0
259	353931	52.816422559446	0
259	354574	52.823402001028	0
259	354898	52.828402001028	0
259	356367	52.840878573459	0
259	356544	52.845878573459	0
259	357283	52.852176261705	0
259	357819	52.857176261705	0
259	358149	52.863201845483	0
259	358805	52.868201845483	0
259	359041	52.873201845483	0
259	359460	52.879815198805	0
259	359723	52.884815198805	0
259	359732	52.889815198805	0
259	360729	52.900745103154	0
259	360801	52.905745103154	0
259	361072	52.911154546001	0
259	361073	52.916154546001	0
259	361418	52.936128094061	0
259	361419	52.941128094061	0
259	361582	53.505	1
259	361961	53.51	21
259	363180	53.515	0
259	363970	53.52	0
259	364992	53.525	0
259	365806	53.53	0
259	366563	53.535	0
259	367440	53.54	0
259	368358	53.545	0
259	369466	53.55	0
259	370353	53.555	0
259	371282	53.561943850174	0
259	371954	53.566943850174	0
259	372766	53.571943850174	0
259	373412	53.576943850174	0
259	374142	53.581943850174	0
259	374963	53.586943850174	0
259	375701	53.591943850174	0
259	376639	53.596943850174	0
259	377444	53.601943850174	0
259	378191	53.606943850174	0
259	378820	53.611943850174	0
259	379651	53.622034681256	0
259	380223	53.627034681256	0
259	380745	53.632034681256	0
259	381384	53.637034681256	0
259	381946	53.642034681256	0
259	383175	53.657979751836	0
259	383443	53.662979751836	0
259	383839	53.667979751836	0
259	384348	53.672992592373	0
259	384849	53.677992592373	0
259	385964	53.682992592373	0
259	386486	53.687992592373	0
259	387363	53.692992592373	0
259	387750	53.697992592373	0
259	388314	53.702992592373	0
259	388638	53.707992592373	0
259	389353	53.712992592373	0
259	389676	53.717992592373	0
259	390386	53.722992592373	0
259	390721	53.727992592373	0
259	391207	53.732992592373	0
259	391610	53.737992592373	0
259	391850	53.742992592373	0
259	392798	53.750234720778	0
259	393156	53.755234720778	0
259	393483	53.760234720778	0
259	393484	53.765234720778	0
259	394634	53.822234155909	0
259	394738	53.827234155909	0
259	394904	54.505	1
259	394982	54.51	0
259	396570	54.516285587423	34
259	397850	54.521285587423	0
259	399002	54.526285587423	0
259	400176	54.531285587423	0
259	401121	54.536285587423	0
259	401855	54.541285587423	0
259	402819	54.546285587423	0
259	403855	54.551285587423	0
259	404437	54.556285587423	0
259	405432	54.56164078305	0
259	406337	54.56664078305	0
259	407132	54.57164078305	0
259	407932	54.57664078305	0
259	408883	54.582854974149	0
259	409794	54.587854974149	0
259	410773	54.594213979033	0
259	411759	54.599213979033	0
259	412272	54.604213979033	0
259	412613	54.609213979033	0
259	414180	54.618135049006	0
259	414916	54.623135049006	0
259	415966	54.628135049006	0
259	416859	54.633135049006	0
259	417576	54.638135049006	0
259	418320	54.643135049006	0
259	418918	54.648135049006	0
259	420064	54.65505499746	0
259	420802	54.66005499746	0
259	421478	54.66505499746	0
259	422453	54.67005499746	0
259	423459	54.677291435839	0
259	423946	54.682291435839	0
259	424565	54.688585941762	0
259	425397	54.693585941762	0
259	425787	54.698585941762	0
259	426594	54.703662003368	0
259	426945	54.708662003368	0
259	427526	54.713662003368	0
259	428578	54.718662003368	0
259	429221	54.723662003368	0
259	429641	54.728662003368	0
259	430332	54.736420950132	0
259	431142	54.741420950132	0
259	431878	54.746420950132	0
259	432470	54.751420950132	0
259	433590	54.763370364918	0
259	434132	54.768370364918	0
259	434869	54.773370364918	0
259	435218	54.778370364918	0
259	435719	54.783370364918	0
259	436104	54.788370364918	0
259	436711	54.793456547911	0
259	437091	54.798456547911	0
259	437723	54.805058906055	0
259	438361	54.810058906055	0
259	438708	54.815058906055	0
259	438709	54.820058906055	0
259	439468	54.836380431145	0
259	439799	54.841380431145	0
259	440302	54.84737245969	0
259	440405	54.85237245969	0
259	440733	54.863498397236	0
259	441033	54.868498397236	0
259	443575	70.00501	0
259	443892	70.01001	0
259	444213	70.01501	0
259	444612	70.02001	0
259	444856	70.02501	0
259	444857	70.03001	0
259	445332	71.00501	0
259	445665	71.01001	0
259	445985	71.01501	0
259	446363	71.02001	0
259	446603	71.02501	0
259	446995	71.03001	0
259	447571	71.03501	0
259	447572	71.04001	0
259	447927	72.00501	0
259	448182	72.01001	0
259	448657	72.01501	0
259	448967	72.02001	0
259	449283	72.02501	0
259	449672	72.03001	0
259	450062	72.03501	0
259	450387	72.04001	0
259	450388	72.04501	0
259	450698	72.061692116919	0
259	451038	72.066692116919	0
259	451039	72.071692116919	0
259	451513	73.00501	0
259	451514	73.01001	0
259	452165	73.055276022315	0
259	452475	73.060276022315	0
259	453107	73.065276022315	0
259	453597	73.070276022315	0
259	453931	73.075276022315	0
259	454266	73.080276022315	0
259	454492	73.085276022315	0
259	454973	73.095364096115	0
259	455307	73.100364096115	0
259	455586	73.105364096115	0
259	455587	73.110364096115	0
259	531732	670.00501	0
259	532122	670.01001	0
259	532440	670.01501	0
259	532759	670.02001	0
259	533089	670.02501	0
259	533090	670.03001	0
259	533460	671.00501	0
259	533895	671.01001	0
259	534215	671.01501	0
259	534522	671.02001	0
259	534859	671.02501	0
259	535482	671.03001	0
259	535800	671.03501	0
259	535801	671.04001	0
259	536569	672.00501	0
259	536886	672.01001	0
259	537210	672.01501	0
259	537514	672.02001	0
259	537827	672.02501	0
259	538129	672.03001	0
259	538280	672.036804116918	0
259	538281	672.041804116918	0
259	539221	672.05792410112	0
259	539543	672.06292410112	0
259	539880	672.06792410112	0
259	539881	672.07292410112	0
259	540355	673.00501	0
259	540683	673.01001	0
259	541075	673.01501	0
259	541453	673.02001	0
259	541852	673.02501	0
259	542129	673.03001	0
259	542130	673.03501	0
259	542902	673.050284071513	0
259	543240	673.055284071513	0
259	543241	673.060284071513	0
259	543620	673.078972096113	0
259	544232	673.083972096113	0
259	544233	673.088972096113	0
259	620454	1270.00501	0
259	620768	1270.01001	0
259	621086	1270.01501	0
259	621635	1270.02001	0
259	621731	1270.02501	0
259	622101	1271.00501	0
259	622533	1271.01001	0
259	622856	1271.01501	0
259	623163	1271.02001	0
259	623494	1271.02501	0
259	624124	1271.03001	0
259	624445	1271.03501	0
259	624446	1271.04001	0
259	624890	1272.00501	0
259	625210	1272.01001	0
259	625534	1272.01501	0
259	625906	1272.02001	0
259	626281	1272.02501	0
259	626612	1272.03001	0
259	626613	1272.03501	0
259	627554	1272.052804116919	0
259	627875	1272.057804116919	0
259	628212	1272.062804116919	0