file 217156 1353539506                                          
version 2
run AODVScenario_1f-14-20121121-14:46:07-6272
attr configname AODVScenario_1f
attr datetime 20121121-14:46:07
attr experiment AODVScenario_1f
attr inifile AODV.ini
attr iterationvars $numNodes=64
attr iterationvars2 "$numNodes=64, $repetition=0"
attr measurement $numNodes=64
attr network csma802154net
attr numNodes 64
attr processid 6272
attr repetition 0
attr replication #0
attr resultdir results
attr runnumber 14
attr seedset 14
vector 267  csma802154net.dataCentricNetworkMan  RREQPacketFrequency  ETV
267	8531 31410 505 1509504 1.005 7273.061644139775 1113 0 69 886 33208
vector 268  csma802154net.dataCentricNetworkMan  RERRPacketFrequency  ETV
268	39941 31383 505 1509504 1.005 7273.061644139775 1113 0 0 0 0
vector 269  csma802154net.dataCentricNetworkMan  DiscoveryPacketFrequency  ETV
269	71324 31383 505 1509504 1.005 7273.061644139775 1113 0 0 0 0
vector 270  csma802154net.dataCentricNetworkMan  RegisterPacketFrequency  ETV
270	102707 31383 505 1509504 1.005 7273.061644139775 1113 0 1 12 12
vector 271  csma802154net.dataCentricNetworkMan  RReplyPacketFrequency  ETV
271	134090 31395 505 1509504 1.005 7273.061644139775 1113 0 70 1046 25528
vector 272  csma802154net.dataCentricNetworkMan  AODVDataPacketFrequency  ETV
272	165485 31396 505 1509504 1.005 7273.061644139775 1113 0 64 1083 22945
vector 279  csma802154net.dataCentricNetworkMan  pendingRegistrationVector  ETV
279	210161 555 16450 383813 43.5 54.690425225409 23 0 2 24 36
vector 278  csma802154net.dataCentricNetworkMan  pendingRREQVector  ETV
278	208787 1374 16455 373223 43.50001 54.595471685952 49 0 1 15 15
vector 273  csma802154net.dataCentricNetworkMan  AODVDataLineBreakVector  ETV
273	196881 29 336008 336008 52.71425344625 52.71425344625 1 1 1 1 1
vector 276  csma802154net.dataCentricNetworkMan  PendingDataPacketsVector  ETV
276	196910 11877 389644 1509343 70 7273.053404184482 390 0 3 455 871
vector 282  csma802154net.fixhost[2].udpApp  "End-to-end delay"  ETV
282	210716 588 390880 1497147 70.015036034323 7270.017844034324 13 0.012796034324 0.030252034324 0.253340446209 0.0052958659192062
vector 264  csma802154net.dataCentricNetworkMan  dataPacketE2EDelay  ETV
264	2091 6440 390880 1509343 70.015036034323 7273.053404184482 143 0.012796034324 0.116588157714 5.680802517783 0.2857233700316
vector 292  csma802154net.fixhost[12].udpApp  "End-to-end delay"  ETV
292	215400 584 391214 1497814 70.01812407947 7270.024204079471 13 0.014676079471 0.045892079471 0.391133033117 0.013671510439009
vector 284  csma802154net.fixhost[4].udpApp  "End-to-end delay"  ETV
284	211304 588 391550 1497494 70.020756065884 7270.022284065885 13 0.015636065885 0.048524065883 0.304772856497 0.0083190670554051
vector 290  csma802154net.fixhost[10].udpApp  "End-to-end delay"  ETV
290	214238 576 393525 1500044 71.024876062701 7271.024804062701 13 0.017836062701 0.049692062701 0.325836815107 0.0088695023162557
vector 291  csma802154net.fixhost[11].udpApp  "End-to-end delay"  ETV
291	214814 586 394166 1500448 71.049444069672 7271.049052069671 13 0.019116069671 0.052572069668 0.474308905724 0.019105653883064
vector 288  csma802154net.fixhost[8].udpApp  "End-to-end delay"  ETV
288	213068 582 396153 1503132 72.023596068931 7272.029244099471 13 0.022916099469 0.03727613001 0.378605380961 0.011345482331518
vector 294  csma802154net.fixhost[14].udpApp  "End-to-end delay"  ETV
294	215984 588 397308 1503474 72.050044095472 7272.035604124137 13 0.028884122238 0.066212152775 0.618213701503 0.031217817868888
vector 298  csma802154net.fixhost[18].udpApp  "End-to-end delay"  ETV
298	216572 584 398317 1504482 72.080972128987 7272.061380128988 13 0.033324155755 0.081612128988 0.747349971264 0.045835880036629
vector 286  csma802154net.fixhost[6].udpApp  "End-to-end delay"  ETV
286	211892 588 401840 1507323 73.037844100684 7273.030236100684 13 0.027676100683 0.064332100683 0.445509308884 0.016345384766626
vector 289  csma802154net.fixhost[9].udpApp  "End-to-end delay"  ETV
289	213650 588 402845 1509343 73.048284184482 7273.053404184482 13 0.048284184482 0.116588157714 0.979782184123 0.078759071028644
vector 287  csma802154net.fixhost[7].udpApp  "End-to-end delay"  ETV
287	212480 588 403513 1509021 73.081636166056 7273.051164166055 13 0.042316135515 0.081636166056 0.761949914394 0.04695813438636
