file 285686 1353540060                                          
version 2
run AODVScenario_1f-65-20121121-15:01:46-2684
attr configname AODVScenario_1f
attr datetime 20121121-15:01:46
attr experiment AODVScenario_1f
attr inifile AODV.ini
attr iterationvars $numNodes=115
attr iterationvars2 "$numNodes=115, $repetition=0"
attr measurement $numNodes=115
attr network csma802154net
attr numNodes 115
attr processid 2684
attr repetition 0
attr replication #0
attr resultdir results
attr runnumber 65
attr seedset 65
vector 471  csma802154net.dataCentricNetworkMan  RREQPacketFrequency  ETV
471	7173 43573 1043 3315430 1.005 7273.075172113362 1517 0 141 4322 371424
vector 472  csma802154net.dataCentricNetworkMan  RERRPacketFrequency  ETV
472	50746 43500 1043 3315430 1.005 7273.075172113362 1517 0 0 0 0
vector 473  csma802154net.dataCentricNetworkMan  DiscoveryPacketFrequency  ETV
473	94246 43500 1043 3315430 1.005 7273.075172113362 1517 0 0 0 0
vector 474  csma802154net.dataCentricNetworkMan  RegisterPacketFrequency  ETV
474	137746 43500 1043 3315430 1.005 7273.075172113362 1517 0 1 12 12
vector 475  csma802154net.dataCentricNetworkMan  RReplyPacketFrequency  ETV
475	181246 43517 1043 3315430 1.005 7273.075172113362 1517 0 129 1853 99293
vector 476  csma802154net.dataCentricNetworkMan  AODVDataPacketFrequency  ETV
476	224763 43521 1043 3315430 1.005 7273.075172113362 1517 0 129 1576 90152
vector 483  csma802154net.dataCentricNetworkMan  pendingRegistrationVector  ETV
483	279888 499 70137 1323205 43.5 55.189160834578 21 0 4 55 175
vector 482  csma802154net.dataCentricNetworkMan  pendingRREQVector  ETV
482	278656 1232 70142 1158526 43.50001 54.536913765327 44 0 1 16 16
vector 480  csma802154net.dataCentricNetworkMan  PendingDataPacketsVector  ETV
480	268284 10372 1327737 3315121 70 7273.068732139998 338 0 3 351 637
vector 491  csma802154net.fixhost[7].udpApp  "End-to-end delay"  ETV
491	282170 595 1329285 3293791 70.013116036416 7270.013756036416 13 0.010876036416 0.017916036416 0.166988473406 0.002189421650031
vector 468  csma802154net.dataCentricNetworkMan  dataPacketE2EDelay  ETV
468	1874 5299 1329285 3315121 70.013116036416 7273.068732139998 117 0.010876036416 0.114604119053 4.981080014179 0.27397349943231
vector 504  csma802154net.fixhost[20].udpApp  "End-to-end delay"  ETV
504	285091 595 1330400 3294906 70.022636074628 7270.022316074629 13 0.020396074629 0.028076074628 0.306428970171 0.0072941381046158
vector 496  csma802154net.fixhost[12].udpApp  "End-to-end delay"  ETV
496	284532 559 1334005 3298510 71.0299560742 7271.0248360742 13 0.023556074199 0.0299560742 0.339508964595 0.0089135405108047
vector 485  csma802154net.fixhost[1].udpApp  "End-to-end delay"  ETV
485	280387 595 1338254 3302874 72.057404080167 7272.028284080165 13 0.023876080167 0.069988080166 0.485949042161 0.021180915241329
vector 495  csma802154net.fixhost[11].udpApp  "End-to-end delay"  ETV
495	283937 595 1340601 3305930 72.069764154138 7272.064004154136 13 0.044516177657 0.093620154138 0.802062074341 0.051897235279422
vector 486  csma802154net.fixhost[2].udpApp  "End-to-end delay"  ETV
486	280982 593 1341184 3304182 72.114604119053 7272.03684411905 13 0.033076119053 0.114604119053 0.617629634721 0.034969474546169
vector 492  csma802154net.fixhost[8].udpApp  "End-to-end delay"  ETV
492	282765 579 1347473 3312772 73.040292108098 7273.0390841081 13 0.031156108099 0.072500137115 0.660037521353 0.035875998313202
vector 489  csma802154net.fixhost[5].udpApp  "End-to-end delay"  ETV
489	281575 595 1348074 3311350 73.046444105877 7273.033076105878 13 0.033076105878 0.080292105877 0.581197376403 0.028806418190936
vector 493  csma802154net.fixhost[9].udpApp  "End-to-end delay"  ETV
493	283344 593 1350396 3315121 73.07669216741 7273.068732139998 13 0.050172139997 0.096108139996 1.021277957028 0.082846357595798
