file 231086 1353539635                                          
version 2
run AODVScenario_1f-27-20121121-14:49:09-7092
attr configname AODVScenario_1f
attr datetime 20121121-14:49:09
attr experiment AODVScenario_1f
attr inifile AODV.ini
attr iterationvars $numNodes=77
attr iterationvars2 "$numNodes=77, $repetition=0"
attr measurement $numNodes=77
attr network csma802154net
attr numNodes 77
attr processid 7092
attr repetition 0
attr replication #0
attr resultdir results
attr runnumber 27
attr seedset 27
vector 319  csma802154net.dataCentricNetworkMan  RREQPacketFrequency  ETV
319	8533 33753 701 1869059 1.005 7273.094132138446 1205 0 90 1727 73963
vector 320  csma802154net.dataCentricNetworkMan  RERRPacketFrequency  ETV
320	42286 33702 701 1869059 1.005 7273.094132138446 1205 0 0 0 0
vector 321  csma802154net.dataCentricNetworkMan  DiscoveryPacketFrequency  ETV
321	75988 33702 701 1869059 1.005 7273.094132138446 1205 0 0 0 0
vector 322  csma802154net.dataCentricNetworkMan  RegisterPacketFrequency  ETV
322	109690 33702 701 1869059 1.005 7273.094132138446 1205 0 1 12 12
vector 323  csma802154net.dataCentricNetworkMan  RReplyPacketFrequency  ETV
323	143392 33714 701 1869059 1.005 7273.094132138446 1205 0 76 1221 35023
vector 324  csma802154net.dataCentricNetworkMan  AODVDataPacketFrequency  ETV
324	177106 33715 701 1869059 1.005 7273.094132138446 1205 0 72 1149 30359
vector 331  csma802154net.dataCentricNetworkMan  pendingRegistrationVector  ETV
331	224092 552 23676 514544 43.5 54.574786918234 23 0 2 18 24
vector 330  csma802154net.dataCentricNetworkMan  pendingRREQVector  ETV
330	222751 1341 23681 527621 43.50001 54.664670965316 48 0 1 14 14
vector 325  csma802154net.dataCentricNetworkMan  AODVDataLineBreakVector  ETV
325	210821 30 103639 103639 45.735281073024 45.735281073024 1 1 1 1 1
vector 328  csma802154net.dataCentricNetworkMan  PendingDataPacketsVector  ETV
328	210851 11900 535260 1868872 70 7273.088252150148 390 0 3 455 871
vector 333  csma802154net.fixhost[1].udpApp  "End-to-end delay"  ETV
333	224644 572 535934 1853533 70.008676027149 7270.00899602715 13 0.006756027149 0.01219602715 0.119508352946 0.0011319222172239
vector 316  csma802154net.dataCentricNetworkMan  dataPacketE2EDelay  ETV
316	2091 6442 535934 1868872 70.008676027149 7273.088252150148 143 0.006756027149 0.12522815015 5.171648182846 0.25804473151008
vector 338  csma802154net.fixhost[6].udpApp  "End-to-end delay"  ETV
338	226392 590 536299 1853898 70.013756052235 7270.013116052236 13 0.011516052235 0.017276052236 0.179468679062 0.0025146531972494
vector 339  csma802154net.fixhost[7].udpApp  "End-to-end delay"  ETV
339	226982 590 536671 1854270 70.017876081705 7270.018516081707 13 0.015316081707 0.021716081706 0.238789062181 0.0044266421090078
vector 336  csma802154net.fixhost[4].udpApp  "End-to-end delay"  ETV
336	225216 586 539015 1856925 71.020076058282 7271.023524058281 13 0.020076058282 0.060820058282 0.35612475766 0.01116207691895
vector 345  csma802154net.fixhost[13].udpApp  "End-to-end delay"  ETV
345	229342 578 540179 1857413 71.04777206774 7271.02608406774 13 0.02231606774 0.049692067741 0.436652880622 0.015866580069799
vector 347  csma802154net.fixhost[15].udpApp  "End-to-end delay"  ETV
347	229920 590 540583 1858192 71.087484088453 7271.053492088453 13 0.029564088454 0.087484088453 0.662829149888 0.037708629978034
vector 337  csma802154net.fixhost[5].udpApp  "End-to-end delay"  ETV
337	225802 590 543495 1861124 72.026436074637 7272.030524074638 13 0.025156074638 0.038700074635 0.371644970285 0.010821276037036
vector 340  csma802154net.fixhost[8].udpApp  "End-to-end delay"  ETV
340	227572 590 544295 1862107 72.035604104994 7272.061452104993 13 0.033116104995 0.061452104993 0.574141364923 0.026911071426683
vector 342  csma802154net.fixhost[10].udpApp  "End-to-end delay"  ETV
342	228162 590 547484 1866095 73.034076093926 7273.035316125234 13 0.028636093926 0.045556125236 0.461693440199 0.016622552866449
vector 344  csma802154net.fixhost[12].udpApp  "End-to-end delay"  ETV
344	228752 590 548962 1868045 73.060172106637 7273.066532131559 13 0.042852137756 0.100452131563 0.83230157314 0.055708900781404
vector 354  csma802154net.fixhost[22].udpApp  "End-to-end delay"  ETV
354	230510 576 550285 1868872 73.10226015015 7273.088252150148 13 0.04480415015 0.12522815015 0.93849395194 0.075170425908247
