file 264551 1353539607                                          
version 2
run AODVScenario_1f-24-20121121-14:48:19-6592
attr configname AODVScenario_1f
attr datetime 20121121-14:48:19
attr experiment AODVScenario_1f
attr inifile AODV.ini
attr iterationvars $numNodes=74
attr iterationvars2 "$numNodes=74, $repetition=0"
attr measurement $numNodes=74
attr network csma802154net
attr numNodes 74
attr processid 6592
attr repetition 0
attr replication #0
attr resultdir results
attr runnumber 24
attr seedset 24
vector 307  csma802154net.dataCentricNetworkMan  RREQPacketFrequency  ETV
307	8566 39281 594 2015006 1.005 7273.066564072187 1381 0 81 2674 117104
vector 308  csma802154net.dataCentricNetworkMan  RERRPacketFrequency  ETV
308	47847 39212 594 2015006 1.005 7273.066564072187 1381 0 2 2 4
vector 309  csma802154net.dataCentricNetworkMan  DiscoveryPacketFrequency  ETV
309	87059 39212 594 2015006 1.005 7273.066564072187 1381 0 0 0 0
vector 310  csma802154net.dataCentricNetworkMan  RegisterPacketFrequency  ETV
310	126271 39212 594 2015006 1.005 7273.066564072187 1381 0 1 12 12
vector 311  csma802154net.dataCentricNetworkMan  RReplyPacketFrequency  ETV
311	165483 39230 594 2015006 1.005 7273.066564072187 1381 0 78 1701 48695
vector 312  csma802154net.dataCentricNetworkMan  AODVDataPacketFrequency  ETV
312	204713 39234 594 2015006 1.005 7273.066564072187 1381 0 72 1393 37373
vector 319  csma802154net.dataCentricNetworkMan  pendingRegistrationVector  ETV
319	257522 554 24488 541930 43.5 54.5 23 0 1 12 12
vector 318  csma802154net.dataCentricNetworkMan  pendingRREQVector  ETV
318	255965 1557 24493 1308061 43.50001 3673.200323145239 54 0 2 21 25
vector 316  csma802154net.dataCentricNetworkMan  PendingDataPacketsVector  ETV
316	244013 11952 617207 2014820 70 7273.058604104404 390 0 3 455 871
vector 321  csma802154net.fixhost[1].udpApp  "End-to-end delay"  ETV
321	258076 589 618231 2001616 70.018236041061 7270.012156039605 13 0.012156039605 0.018236041061 0.180428525063 0.0025407533561401
vector 304  csma802154net.dataCentricNetworkMan  dataPacketE2EDelay  ETV
304	2091 6475 618231 2014820 70.018236041061 7273.058604104404 143 0.012156039605 0.617516545618 5.940515001291 0.75783605704981
vector 322  csma802154net.fixhost[2].udpApp  "End-to-end delay"  ETV
322	258665 591 618610 2001996 70.022676068533 7270.017236067078 13 0.016276067078 0.022676068533 0.24134888221 0.0045177513788286
vector 328  csma802154net.fixhost[8].udpApp  "End-to-end delay"  ETV
328	260434 585 619369 2002754 70.03187610581 7270.024196104355 13 0.024196104355 0.03187610581 0.35614936681 0.0098193647133124
vector 324  csma802154net.fixhost[4].udpApp  "End-to-end delay"  ETV
324	259256 591 622635 2005253 71.050996147617 7271.025156082717 13 0.023876081928 0.050996147617 0.403093234018 0.013316704598376
vector 327  csma802154net.fixhost[7].udpApp  "End-to-end delay"  ETV
327	259847 587 623029 2006022 71.053484158066 7271.032124102878 13 0.029884102089 0.058612102878 0.586709608063 0.027926859732955
vector 329  csma802154net.fixhost[9].udpApp  "End-to-end delay"  ETV
329	261019 591 623793 2007160 71.087644199818 7271.044204149228 13 0.043204176686 0.095860176685 0.812470206667 0.05406610495112
vector 332  csma802154net.fixhost[12].udpApp  "End-to-end delay"  ETV
332	262201 585 626018 2008886 72.022956085978 7272.016916055404 13 0.015636055405 0.029956117576 0.282469092257 0.0064799080697806
vector 343  csma802154net.fixhost[23].udpApp  "End-to-end delay"  ETV
343	263377 585 626405 2009800 72.02771610892 7272.027684093711 13 0.023596092687 0.048124124284 0.398629545895 0.012669310750494
vector 347  csma802154net.fixhost[27].udpApp  "End-to-end delay"  ETV
347	263962 589 627163 2010562 72.050684124581 7272.057972125605 13 0.033972125606 0.057972125605 0.573117914427 0.026252750335457
vector 330  csma802154net.fixhost[10].udpApp  "End-to-end delay"  ETV
330	261610 591 630002 2013245 73.025476085877 7273.026756079639 13 0.024196079636 0.378587760572 0.832452753661 0.17472448244667
vector 337  csma802154net.fixhost[17].udpApp  "End-to-end delay"  ETV
337	262786 591 630821 2014820 73.035604116698 7273.058604104404 13 0.028636116698 0.617516545618 1.27364587222 0.42552206671667
vector 313  csma802154net.dataCentricNetworkMan  AODVDataLineBreakVector  ETV
313	243947 66 1158441 1158442 3073.196034070124 3073.197026100349 2 1 2 3 5
