file 231003 1353539551                                          
version 2
run AODVScenario_1f-19-20121121-14:47:12-8144
attr configname AODVScenario_1f
attr datetime 20121121-14:47:12
attr experiment AODVScenario_1f
attr inifile AODV.ini
attr iterationvars $numNodes=69
attr iterationvars2 "$numNodes=69, $repetition=0"
attr measurement $numNodes=69
attr network csma802154net
attr numNodes 69
attr processid 8144
attr repetition 0
attr replication #0
attr resultdir results
attr runnumber 19
attr seedset 19
vector 287  csma802154net.dataCentricNetworkMan  RREQPacketFrequency  ETV
287	9109 33415 554 1672201 1.005 7273.091100102463 1197 0 91 1311 53535
vector 288  csma802154net.dataCentricNetworkMan  RERRPacketFrequency  ETV
288	42524 33376 554 1672201 1.005 7273.091100102463 1197 0 0 0 0
vector 289  csma802154net.dataCentricNetworkMan  DiscoveryPacketFrequency  ETV
289	75900 33376 554 1672201 1.005 7273.091100102463 1197 0 0 0 0
vector 290  csma802154net.dataCentricNetworkMan  RegisterPacketFrequency  ETV
290	109276 33376 554 1672201 1.005 7273.091100102463 1197 0 1 12 12
vector 291  csma802154net.dataCentricNetworkMan  RReplyPacketFrequency  ETV
291	142652 33388 554 1672201 1.005 7273.091100102463 1197 0 72 1155 30949
vector 292  csma802154net.dataCentricNetworkMan  AODVDataPacketFrequency  ETV
292	176040 33393 554 1672201 1.005 7273.091100102463 1197 0 71 1142 23550
vector 299  csma802154net.dataCentricNetworkMan  pendingRegistrationVector  ETV
299	223399 578 22398 452434 43.5 54.818818538603 24 0 1 12 12
vector 298  csma802154net.dataCentricNetworkMan  pendingRREQVector  ETV
298	222176 1223 22403 408769 43.50001 54.546569893729 44 0 1 14 14
vector 296  csma802154net.dataCentricNetworkMan  PendingDataPacketsVector  ETV
296	209433 12743 459958 1672015 70 7273.081500113589 416 0 3 520 1040
vector 305  csma802154net.fixhost[5].udpApp  "End-to-end delay"  ETV
305	224564 589 460571 1657898 70.008676022052 7270.008676022052 13 0.007076022052 0.011876022052 0.116948286675 0.0010752117658648
vector 284  csma802154net.dataCentricNetworkMan  dataPacketE2EDelay  ETV
284	2083 7026 460571 1672015 70.008676022052 7273.081500113589 156 0.007076022052 0.113468100685 6.173461377544 0.32579628024126
vector 320  csma802154net.fixhost[20].udpApp  "End-to-end delay"  ETV
320	229845 589 460914 1658241 70.014076045169 7270.013756045169 13 0.011836045169 0.015356045169 0.175308587194 0.0023749075649162
vector 323  csma802154net.fixhost[23].udpApp  "End-to-end delay"  ETV
323	230434 569 461254 1658581 70.01851606482 7270.01883606482 13 0.01627606482 0.019476064819 0.231748842656 0.0041417614517198
vector 314  csma802154net.fixhost[14].udpApp  "End-to-end delay"  ETV
314	229256 589 463924 1661778 71.032796100685 7271.033684100682 13 0.027356100684 0.113468100685 0.696733308907 0.047199822173387
vector 312  csma802154net.fixhost[12].udpApp  "End-to-end delay"  ETV
312	228681 575 464637 1661241 71.037172072939 7271.028284072937 13 0.024764072938 0.07269207294 0.572308948211 0.028094323823682
vector 307  csma802154net.fixhost[7].udpApp  "End-to-end delay"  ETV
307	225742 589 465023 1662887 71.039412065175 7271.064548065173 13 0.021956065177 0.064548065173 0.415372847291 0.014957662160521
vector 308  csma802154net.fixhost[8].udpApp  "End-to-end delay"  ETV
308	226331 589 468165 1666574 72.036316098746 7272.037236126861 13 0.028636098745 0.079692098744 0.654941396154 0.036440871796322
vector 311  csma802154net.fixhost[11].udpApp  "End-to-end delay"  ETV
311	228092 589 468875 1666941 72.044244115323 7272.043244139674 13 0.043244139674 0.088220139675 0.926005592837 0.068893182621605
vector 306  csma802154net.fixhost[6].udpApp  "End-to-end delay"  ETV
306	225153 589 469586 1665856 72.063484084089 7272.028356084088 13 0.025796084089 0.063484084089 0.510061093154 0.02261862845279
vector 303  csma802154net.fixhost[3].udpApp  "End-to-end delay"  ETV
303	223977 587 473177 1670340 73.037524095443 7273.034396095441 13 0.027036095443 0.060740095443 0.462821240748 0.017886811241262
vector 310  csma802154net.fixhost[10].udpApp  "End-to-end delay"  ETV
310	227505 587 473930 1671174 73.046652135159 7273.043844135159 13 0.040324135158 0.073780135158 0.714749757062 0.041125594376881
vector 309  csma802154net.fixhost[9].udpApp  "End-to-end delay"  ETV
309	226920 585 475058 1672015 73.06749211359 7273.081500113589 13 0.034356113588 0.081500113589 0.696461476655 0.040987502812307
