file 255627 1353539716                                          
version 2
run AODVScenario_1f-33-20121121-14:50:40-7564
attr configname AODVScenario_1f
attr datetime 20121121-14:50:40
attr experiment AODVScenario_1f
attr inifile AODV.ini
attr iterationvars $numNodes=83
attr iterationvars2 "$numNodes=83, $repetition=0"
attr measurement $numNodes=83
attr network csma802154net
attr numNodes 83
attr processid 7564
attr repetition 0
attr replication #0
attr resultdir results
attr runnumber 33
attr seedset 33
vector 343  csma802154net.dataCentricNetworkMan  RREQPacketFrequency  ETV
343	8499 37818 657 2104683 1.005 7273.085836062097 1319 0 99 1951 112553
vector 344  csma802154net.dataCentricNetworkMan  RERRPacketFrequency  ETV
344	46317 37778 657 2104683 1.005 7273.085836062097 1319 0 0 0 0
vector 345  csma802154net.dataCentricNetworkMan  DiscoveryPacketFrequency  ETV
345	84095 37778 657 2104683 1.005 7273.085836062097 1319 0 0 0 0
vector 346  csma802154net.dataCentricNetworkMan  RegisterPacketFrequency  ETV
346	121873 37778 657 2104683 1.005 7273.085836062097 1319 0 1 12 12
vector 347  csma802154net.dataCentricNetworkMan  RReplyPacketFrequency  ETV
347	159651 37790 657 2104683 1.005 7273.085836062097 1319 0 96 1386 46762
vector 348  csma802154net.dataCentricNetworkMan  AODVDataPacketFrequency  ETV
348	197441 37794 657 2104683 1.005 7273.085836062097 1319 0 96 1311 40029
vector 355  csma802154net.dataCentricNetworkMan  pendingRegistrationVector  ETV
355	248584 557 31380 637863 43.5 54.687368188547 23 1 2 34 56
vector 354  csma802154net.dataCentricNetworkMan  pendingRREQVector  ETV
354	247236 1348 31385 619941 43.50001 54.533524340451 48 0 1 15 15
vector 352  csma802154net.dataCentricNetworkMan  PendingDataPacketsVector  ETV
352	235235 12001 642127 2104474 70 7273.077364165875 390 0 3 455 871
vector 364  csma802154net.fixhost[8].udpApp  "End-to-end delay"  ETV
364	250909 588 642846 2085919 70.033956024811 7270.008356024811 13 0.006756024811 0.033956024811 0.131348322541 0.0019590403257289
vector 340  csma802154net.dataCentricNetworkMan  dataPacketE2EDelay  ETV
340	2013 6486 642846 2104474 70.033956024811 7273.077364165875 143 0.006756024811 0.137644091889 6.319777743064 0.37038240605836
vector 369  csma802154net.fixhost[13].udpApp  "End-to-end delay"  ETV
369	253261 592 643269 2086343 70.037436055054 7270.011836055054 13 0.010876055054 0.037436055054 0.186828715697 0.003278192939174
vector 359  csma802154net.fixhost[3].udpApp  "End-to-end delay"  ETV
359	249141 584 646245 2090338 71.026116075171 7271.051324075169 13 0.02579607517 0.051324075169 0.442644977213 0.016038838851302
vector 373  csma802154net.fixhost[17].udpApp  "End-to-end delay"  ETV
373	254445 592 647491 2091570 71.059852112522 7271.076812112523 13 0.036564112521 0.086660112522 0.811181462785 0.053757510503253
vector 366  csma802154net.fixhost[10].udpApp  "End-to-end delay"  ETV
366	252087 588 647909 2089305 71.06206008686 7271.028356086862 13 0.024196086861 0.06206008686 0.537005129197 0.024882075961701
vector 362  csma802154net.fixhost[6].udpApp  "End-to-end delay"  ETV
362	249725 592 650778 2094348 72.022956059257 7272.026116077642 13 0.019756059256 0.049836059257 0.401404862267 0.013568491057577
vector 363  csma802154net.fixhost[7].udpApp  "End-to-end delay"  ETV
363	250317 592 651771 2095852 72.039092079987 7272.036244110274 13 0.027892079985 0.137644091889 0.67203722697 0.044959719210981
vector 365  csma802154net.fixhost[9].udpApp  "End-to-end delay"  ETV
365	251497 590 652618 2096720 72.055412089249 7272.062060089248 13 0.028356089249 0.079660089249 0.602053195935 0.030778791417003
vector 371  csma802154net.fixhost[15].udpApp  "End-to-end delay"  ETV
371	253853 592 658429 2104474 73.046084120926 7273.077364165875 13 0.046084120926 0.109796120925 0.899325878497 0.065366951709221
vector 384  csma802154net.fixhost[28].udpApp  "End-to-end delay"  ETV
384	255037 590 659724 2103609 73.058164156046 7273.066724209173 13 0.058164156046 0.102820156045 1.015830400479 0.081473540540435
vector 368  csma802154net.fixhost[12].udpApp  "End-to-end delay"  ETV
368	252675 586 660145 2101867 73.109876102498 7273.04835613927 13 0.032436102498 0.109876102498 0.620117571483 0.03431925354198
