file 225347 1353539489                                          
version 2
run AODVScenario_1f-12-20121121-14:45:42-5128
attr configname AODVScenario_1f
attr datetime 20121121-14:45:42
attr experiment AODVScenario_1f
attr inifile AODV.ini
attr iterationvars $numNodes=62
attr iterationvars2 "$numNodes=62, $repetition=0"
attr measurement $numNodes=62
attr network csma802154net
attr numNodes 62
attr processid 5128
attr repetition 0
attr replication #0
attr resultdir results
attr runnumber 12
attr seedset 12
vector 259  csma802154net.dataCentricNetworkMan  RREQPacketFrequency  ETV
259	8465 32775 489 1513923 1.005 7273.093500087718 1173 0 61 870 30926
vector 260  csma802154net.dataCentricNetworkMan  RERRPacketFrequency  ETV
260	41240 32748 489 1513923 1.005 7273.093500087718 1173 0 0 0 0
vector 261  csma802154net.dataCentricNetworkMan  DiscoveryPacketFrequency  ETV
261	73988 32748 489 1513923 1.005 7273.093500087718 1173 0 0 0 0
vector 262  csma802154net.dataCentricNetworkMan  RegisterPacketFrequency  ETV
262	106736 32748 489 1513923 1.005 7273.093500087718 1173 0 1 12 12
vector 263  csma802154net.dataCentricNetworkMan  RReplyPacketFrequency  ETV
263	139484 32760 489 1513923 1.005 7273.093500087718 1173 0 74 1226 34758
vector 264  csma802154net.dataCentricNetworkMan  AODVDataPacketFrequency  ETV
264	172244 32762 489 1513923 1.005 7273.093500087718 1173 0 74 1141 31349
vector 271  csma802154net.dataCentricNetworkMan  pendingRegistrationVector  ETV
271	218344 551 15691 440887 43.5 54.865818412496 23 0 2 24 36
vector 270  csma802154net.dataCentricNetworkMan  pendingRREQVector  ETV
270	216849 1495 15696 421325 43.50001 54.663802064502 53 0 1 15 15
vector 268  csma802154net.dataCentricNetworkMan  PendingDataPacketsVector  ETV
268	205006 11843 443182 1513762 70 7273.087300103483 390 0 3 455 871
vector 282  csma802154net.fixhost[10].udpApp  "End-to-end delay"  ETV
282	221829 588 443726 1502081 70.007716029564 7270.008356029565 13 0.006436029565 0.010916029564 0.111188384341 0.00096645926248456
vector 256  csma802154net.dataCentricNetworkMan  dataPacketE2EDelay  ETV
256	2013 6452 443726 1513762 70.007716029564 7273.087300103483 143 0.006436029565 0.100524123191 5.204000789991 0.24317652745914
vector 292  csma802154net.fixhost[20].udpApp  "End-to-end delay"  ETV
292	224171 588 444376 1502731 70.016276066993 7270.016276066995 13 0.016276066993 0.025484066994 0.257628870926 0.0052162862472727
vector 298  csma802154net.fixhost[26].udpApp  "End-to-end delay"  ETV
298	224759 588 444692 1503047 70.021004087074 7270.022924087076 13 0.014676087075 0.044044087076 0.269789131977 0.0062731486317906
vector 276  csma802154net.fixhost[4].udpApp  "End-to-end delay"  ETV
276	219483 588 447095 1505450 71.031196093428 7271.031196093429 13 0.026116074749 0.036884093428 0.390005083811 0.011838679654563
vector 277  csma802154net.fixhost[5].udpApp  "End-to-end delay"  ETV
277	220071 586 447410 1505767 71.033116103531 7271.033756103531 13 0.029244075505 0.059572075506 0.468997168417 0.018008733601432
vector 274  csma802154net.fixhost[2].udpApp  "End-to-end delay"  ETV
274	218895 588 449834 1508110 72.031164085813 7272.024196085814 13 0.024196085814 0.058932085812 0.425829115571 0.015580080587181
vector 278  csma802154net.fixhost[6].udpApp  "End-to-end delay"  ETV
278	220657 584 450218 1508421 72.036284101121 7272.026116101122 13 0.025476101122 0.058644129915 0.565557343372 0.026517050572807
vector 283  csma802154net.fixhost[11].udpApp  "End-to-end delay"  ETV
283	222417 588 450860 1509057 72.064652132936 7272.033364132937 13 0.031444132937 0.083140132936 0.768653754165 0.0479603482505
vector 281  csma802154net.fixhost[9].udpApp  "End-to-end delay"  ETV
281	221241 588 453352 1511313 73.066756076205 7273.027396076206 13 0.025156076206 0.066756076205 0.447948990665 0.017319162495854
vector 284  csma802154net.fixhost[12].udpApp  "End-to-end delay"  ETV
284	223005 588 454106 1513762 73.077844103483 7273.087300103483 13 0.032404103484 0.087300103483 0.683933345277 0.039303809854488
vector 287  csma802154net.fixhost[15].udpApp  "End-to-end delay"  ETV
287	223593 578 455414 1512752 73.100524123191 7273.061484123191 13 0.03979612319 0.100524123191 0.814469601469 0.054192768300769
