file 257013 1353540017                                          
version 2
run AODVScenario_1f-61-20121121-15:00:01-3448
attr configname AODVScenario_1f
attr datetime 20121121-15:00:01
attr experiment AODVScenario_1f
attr inifile AODV.ini
attr iterationvars $numNodes=111
attr iterationvars2 "$numNodes=111, $repetition=0"
attr measurement $numNodes=111
attr network csma802154net
attr numNodes 111
attr processid 3448
attr repetition 0
attr replication #0
attr resultdir results
attr runnumber 61
attr seedset 61
vector 455  csma802154net.dataCentricNetworkMan  RREQPacketFrequency  ETV
455	6536 39141 881 2986382 1.005 7273.066612082305 1366 0 136 3097 246397
vector 456  csma802154net.dataCentricNetworkMan  RERRPacketFrequency  ETV
456	45677 39088 881 2986382 1.005 7273.066612082305 1366 0 0 0 0
vector 457  csma802154net.dataCentricNetworkMan  DiscoveryPacketFrequency  ETV
457	84765 39088 881 2986382 1.005 7273.066612082305 1366 0 0 0 0
vector 458  csma802154net.dataCentricNetworkMan  RegisterPacketFrequency  ETV
458	123853 39088 881 2986382 1.005 7273.066612082305 1366 0 1 12 12
vector 459  csma802154net.dataCentricNetworkMan  RReplyPacketFrequency  ETV
459	162941 39101 881 2986382 1.005 7273.066612082305 1366 0 116 1769 78497
vector 460  csma802154net.dataCentricNetworkMan  AODVDataPacketFrequency  ETV
460	202042 39103 881 2986382 1.005 7273.066612082305 1366 0 93 1381 66957
vector 467  csma802154net.dataCentricNetworkMan  pendingRegistrationVector  ETV
467	251815 466 55250 977742 43.5 54.5 20 1 4 42 110
vector 466  csma802154net.dataCentricNetworkMan  pendingRREQVector  ETV
466	250673 1142 55255 996772 43.50001 54.560653588091 41 0 1 17 17
vector 464  csma802154net.dataCentricNetworkMan  PendingDataPacketsVector  ETV
464	241145 9528 1131210 2986106 70 7273.059212115023 312 0 3 286 468
vector 473  csma802154net.fixhost[5].udpApp  "End-to-end delay"  ETV
473	252868 595 1132698 2970706 70.013436033275 7270.013436033275 13 0.010876033275 0.015036033274 0.171468432572 0.0022782682591247
vector 452  csma802154net.dataCentricNetworkMan  dataPacketE2EDelay  ETV
452	1804 4732 1132698 2986106 70.013436033275 7273.059212115023 104 0.010876033275 0.107604115023 3.390696913452 0.14361596002346
vector 476  csma802154net.fixhost[8].udpApp  "End-to-end delay"  ETV
476	254056 595 1133229 2971237 70.017876054976 7270.017556054976 13 0.014996054976 0.020436054975 0.228548714684 0.0040416861372009
vector 477  csma802154net.fixhost[9].udpApp  "End-to-end delay"  ETV
477	254651 595 1136728 2974243 71.026796069114 7271.025196069113 13 0.017516069114 0.050652069113 0.355188995691 0.010532546049158
vector 487  csma802154net.fixhost[19].udpApp  "End-to-end delay"  ETV
487	256418 595 1138494 2976979 71.041076125185 7271.044452125184 13 0.041076125185 0.065252125186 0.652293688316 0.033837643602213
vector 485  csma802154net.fixhost[17].udpApp  "End-to-end delay"  ETV
485	255841 577 1139179 2975313 71.06604409361 7271.03212409361 13 0.02387609361 0.06604409361 0.496261216934 0.020984482750201
vector 478  csma802154net.fixhost[10].udpApp  "End-to-end delay"  ETV
478	255246 595 1142757 2980542 72.045636079153 7272.028036079153 13 0.022596079153 0.045636079153 0.354229028979 0.010068244443999
vector 472  csma802154net.fixhost[4].udpApp  "End-to-end delay"  ETV
472	252281 587 1147729 2984290 73.100996085081 7273.024836085081 13 0.024196085081 0.100996085081 0.428309215706 0.019199009658376
vector 474  csma802154net.fixhost[6].udpApp  "End-to-end delay"  ETV
474	253463 593 1148304 2986106 73.107604115023 7273.059212115023 13 0.034964115023 0.107604115023 0.70439762057 0.042674079123185
