version 2
run AODVScenario_1f-71-20121121-15:04:22-7264
attr configname AODVScenario_1f
attr datetime 20121121-15:04:22
attr experiment AODVScenario_1f
attr inifile AODV.ini
attr iterationvars $numNodes=121
attr iterationvars2 "$numNodes=121, $repetition=0"
attr measurement $numNodes=121
attr network csma802154net
attr numNodes 121
attr processid 7264
attr repetition 0
attr replication #0
attr resultdir results
attr runnumber 71
attr seedset 71

vector 495  csma802154net.dataCentricNetworkMan  RREQPacketFrequency  ETV
vector 496  csma802154net.dataCentricNetworkMan  RERRPacketFrequency  ETV
vector 497  csma802154net.dataCentricNetworkMan  DiscoveryPacketFrequency  ETV
vector 498  csma802154net.dataCentricNetworkMan  RegisterPacketFrequency  ETV
vector 499  csma802154net.dataCentricNetworkMan  RReplyPacketFrequency  ETV
vector 500  csma802154net.dataCentricNetworkMan  AODVDataPacketFrequency  ETV
vector 507  csma802154net.dataCentricNetworkMan  pendingRegistrationVector  ETV
vector 506  csma802154net.dataCentricNetworkMan  pendingRREQVector  ETV
vector 504  csma802154net.dataCentricNetworkMan  PendingDataPacketsVector  ETV
vector 513  csma802154net.fixhost[5].udpApp  "End-to-end delay"  ETV
vector 492  csma802154net.dataCentricNetworkMan  dataPacketE2EDelay  ETV
vector 515  csma802154net.fixhost[7].udpApp  "End-to-end delay"  ETV
vector 538  csma802154net.fixhost[30].udpApp  "End-to-end delay"  ETV
vector 512  csma802154net.fixhost[4].udpApp  "End-to-end delay"  ETV
vector 518  csma802154net.fixhost[10].udpApp  "End-to-end delay"  ETV
vector 519  csma802154net.fixhost[11].udpApp  "End-to-end delay"  ETV
vector 516  csma802154net.fixhost[8].udpApp  "End-to-end delay"  ETV
vector 525  csma802154net.fixhost[17].udpApp  "End-to-end delay"  ETV
vector 527  csma802154net.fixhost[19].udpApp  "End-to-end delay"  ETV
vector 514  csma802154net.fixhost[6].udpApp  "End-to-end delay"  ETV
vector 517  csma802154net.fixhost[9].udpApp  "End-to-end delay"  ETV
492	1504474	70.013116036568	0.013116036568
492	1505061	70.01688404088	0.01688404088
492	1506210	70.051044079034	0.051044079034
492	1509443	71.023596070437	0.023596070437
492	1510654	71.030524105636	0.030524105636
492	1511847	71.037844138299	0.037844138299
492	1516519	72.029636071419	0.029636071419
492	1518571	72.05633208879	0.05633208879
492	1519162	72.060492102976	0.060492102976
492	1523380	73.024196086949	0.024196086949
492	1525856	73.068812115043	0.068812115043
492	1675723	670.012156036568	0.012156036568
492	1676310	670.018484040881	0.018484040881
492	1677458	670.028324079036	0.028324079036
492	1681274	671.025476103208	0.025476103208
492	1682481	671.031196138407	0.031196138407
492	1683096	671.034676165884	0.034676165884
492	1686911	672.028036071419	0.028036071419
492	1689286	672.03912408879	0.03912408879
492	1689872	672.041044102976	0.041044102976
492	1694529	673.025156086949	0.025156086949
492	1696514	673.060172115044	0.060172115044
492	1846384	1270.014076036568	0.014076036568
492	1846968	1270.01624404088	0.01624404088
492	1848116	1270.026084079035	0.026084079035
492	1851346	1271.022636070437	0.022636070437
492	1852562	1271.031484105636	0.031484105636
492	1853755	1271.036884138299	0.036884138299
492	1858121	1272.027076071419	0.027076071419
492	1859929	1272.040364118048	0.040364118048
492	1860519	1272.043564130122	0.043564130122
492	1865074	1273.031836115042	0.031836115042
492	1866340	1273.039412086948	0.039412086948
492	2016320	1870.011516036568	0.011516036568
492	2017752	1870.03736404088	0.03736404088
492	2018899	1870.046244079034	0.046244079034
492	2022129	1871.026796070436	0.026796070436
492	2023929	1871.038484138407	0.038484138407
492	2024545	1871.043244165884	0.043244165884
492	2028614	1872.027716071419	0.027716071419
492	2032377	1872.085732118048	0.085732118048
492	2032967	1872.089252130122	0.089252130122
492	2036931	1873.024836086947	0.024836086947
492	2038773	1873.03464411504	0.03464411504
492	2188632	2470.012156040881	0.012156040881
492	2189224	2470.014964036568	0.014964036568
492	2191222	2470.045284079035	0.045284079035
492	2195286	2471.024836103209	0.024836103209
492	2195919	2471.029916128368	0.029916128368
492	2197119	2471.054804138299	0.054804138299
492	2201776	2472.029244071418	0.029244071418
492	2203006	2472.042252088788	0.042252088788
492	2204177	2472.060492102975	0.060492102975
492	2208142	2473.027076086949	0.027076086949
492	2209984	2473.036244115044	0.036244115044
492	2359843	3070.011196040881	0.011196040881
492	2360995	3070.020396079036	0.020396079036
492	2361556	3070.025772036568	0.025772036568
492	2365407	3071.027396103209	0.027396103209
492	2366624	3071.036884138408	0.036884138408
492	2367240	3071.041324165885	0.041324165885
492	2371894	3072.029956071418	0.029956071418
492	2373120	3072.036492088788	0.036492088788
492	2374852	3072.068492102974	0.068492102974
492	2379654	3073.030844086948	0.030844086948
492	2380932	3073.059212115044	0.059212115044
492	2530920	3670.014396036568	0.014396036568
492	2531508	3670.020724040881	0.020724040881
492	2532655	3670.028004079036	0.028004079036
492	2536134	3671.021996070437	0.021996070437
492	2537355	3671.050364105635	0.050364105635
492	2538554	3671.059212138298	0.059212138298
492	2542494	3672.026436071418	0.026436071418
492	2545007	3672.06209208879	0.06209208879
492	2546172	3672.068740102975	0.068740102975
492	2550727	3673.031516115043	0.031516115043
492	2551993	3673.039732086948	0.039732086948
492	2702381	4270.037364040881	0.037364040881
492	2702974	4270.040812036567	0.040812036567
492	2704127	4270.049372079036	0.049372079036
492	2707358	4271.030956070434	0.030956070434
492	2708575	4271.041404105633	0.041404105633
492	2709774	4271.052492138295	0.052492138295
492	2713714	4272.028996071414	0.028996071414
492	2719559	4272.160292102969	0.160292102969
492	2720205	4272.167900088781	0.167900088781
492	2725342	4273.031732086947	0.031732086947
492	2725980	4273.036492115042	0.036492115042
492	2875847	4870.012796036568	0.012796036568
492	2876434	4870.017524040881	0.017524040881
492	2877582	4870.028964079036	0.028964079036
492	2881981	4871.03567613598	0.03567613598
492	2882611	4871.040436161139	0.040436161139
492	2883227	4871.044876188616	0.044876188616
492	2887167	4872.035396071419	0.035396071419
492	2890261	4872.078052118048	0.078052118048
492	2890843	4872.079652130122	0.079652130122
492	2895527	4873.026116086948	0.026116086948
492	2897513	4873.065612115044	0.065612115044
492	3047501	5470.011836036568	0.011836036568
492	3048087	5470.014964040881	0.014964040881
492	3049235	5470.024484079036	0.024484079036
492	3052465	5471.020076070437	0.020076070437
492	3054265	5471.037204138408	0.037204138408
492	3054881	5471.044844165885	0.044844165885
492	3059954	5472.037556118047	0.037556118047
492	3060541	5472.039796130121	0.039796130121
492	3061717	5472.052780071418	0.052780071418
492	3066851	5473.032444086948	0.032444086948
492	3067489	5473.039444115043	0.039444115043
492	3217344	6070.012156040881	0.012156040881
492	3217938	6070.016316036568	0.016316036568
492	3219090	6070.024804079035	0.024804079035
492	3222320	6071.024876070437	0.024876070437
492	3224119	6071.038484138408	0.038484138408
492	3224735	6071.042284165885	0.042284165885
492	3230055	6072.033716118048	0.033716118048
492	3230647	6072.040684130122	0.040684130122
492	3232396	6072.057332071418	0.057332071418
492	3236577	6073.026756086949	0.026756086949
492	3238430	6073.064652115043	0.064652115043
492	3388289	6670.013436040881	0.013436040881
492	3388883	6670.017524036567	0.017524036567
492	3390036	6670.026724079036	0.026724079036
492	3393851	6671.023876103209	0.023876103209
492	3394484	6671.028316128368	0.028316128368
492	3396557	6671.062412138299	0.062412138299
492	3401233	6672.028356071419	0.028356071419
492	3403415	6672.057932100863	0.057932100863
492	3404129	6672.05953208879	0.05953208879
492	3410116	6673.026396115044	0.026396115044
492	3411388	6673.056940086948	0.056940086948
492	3561361	7270.011836040881	0.011836040881
492	3562763	7270.018796079036	0.018796079036
492	3563874	7270.044332036568	0.044332036568
492	3568309	7271.036956135981	0.036956135981
492	3568940	7271.04811616114	0.04811616114
492	3569555	7271.051596188617	0.051596188617
492	3573494	7272.024836071419	0.024836071419
492	3577674	7272.110196102976	0.110196102976
492	3578316	7272.11243608879	0.11243608879
492	3582821	7273.031196115043	0.031196115043
492	3584091	7273.042292086948	0.042292086948
495	970	1.005	1
495	1283	1.01	22
495	1796	1.015	23
495	3036	1.02	102
495	5285	1.025	130
495	7698	1.03	44
495	11058	1.035	129
495	14584	1.04	59
495	16682	1.045	123
495	18728	1.05	140
495	21456	1.055	97
495	23340	1.06	89
495	25018	1.065	129
495	26463	1.07	50
495	27663	1.075	57
495	29514	1.08	138
495	31185	1.085	78
495	32258	1.09	91
495	33704	1.095	137
495	34727	1.1	78
495	35761	1.105	82
495	37112	1.11	92
495	37880	1.115	55
495	38574	1.12	67
495	38708	1.125	0
495	39555	1.130272903968	98
495	39994	1.135272903968	38
495	40653	1.140272903968	56
495	40959	1.145272903968	38
495	40960	1.150272903968	0
495	41482	1.160883712059	54
495	42021	1.165883712059	61
495	42304	1.170883712059	0
495	43271	1.176318639387	95
495	43738	1.181318639387	44
495	43739	1.186318639387	0
495	44684	1.203121945846	90
495	44685	1.208121945846	0
495	45151	1.222047738749	44
495	45155	1.227047738749	0
495	45663	1.234163973274	53
495	45664	1.239163973274	0
495	56186	43.505	1
495	56323	43.51	0
495	59231	43.515394051814	53
495	61957	43.520394051814	0
495	65095	43.526155203911	0
495	66584	43.531155203911	0
495	67604	43.536155203911	0
495	69847	43.541155203911	0
495	71555	43.546155203911	0
495	74018	43.554087400246	0
495	75952	43.559087400246	0
495	77543	43.564087400246	0
495	79420	43.569087400246	0
495	81314	43.574087400246	0
495	85808	43.591628277141	0
495	87390	43.596628277141	0
495	89608	43.601628277141	0
495	93151	43.61361553957	0
495	94212	43.61861553957	0
495	95733	43.62361553957	0
495	97200	43.62861553957	0
495	100919	43.638774938046	0
495	102338	43.643774938046	0
495	103654	43.649020352331	0
495	105134	43.654020352331	0
495	106545	43.659020352331	0
495	107899	43.664020352331	0
495	113759	43.687449294944	0
495	114936	43.692449294944	0
495	116919	43.700376507285	0
495	118705	43.705376507285	0
495	120131	43.710376507285	0
495	121333	43.715376507285	0
495	123030	43.720376507285	0
495	124325	43.725376507285	0
495	125740	43.730376507285	0
495	126915	43.735376507285	0
495	128213	43.74070657032	0
495	129633	43.74570657032	0
495	130513	43.75070657032	0
495	131524	43.755965308988	0
495	132973	43.760965308988	0
495	134397	43.765965308988	0
495	136471	43.770965308988	0
495	137846	43.775965308988	0
495	139221	43.780965308988	0
495	140761	43.785965308988	0
495	141941	43.790965308988	0
495	142931	43.795965308988	0
495	144272	43.80107353578	0
495	145443	43.80607353578	0
495	147479	43.812828031665	0
495	149044	43.817828031665	0
495	150591	43.822828031665	0
495	151942	43.829937162527	0
495	152843	43.834937162527	0
495	154173	43.839937162527	0
495	156598	43.850858227377	0
495	158162	43.855858227377	0
495	159537	43.861592294674	0
495	160799	43.866592294674	0
495	162075	43.871592294674	0
495	163281	43.876592294674	0
495	164695	43.881592294674	0
495	165849	43.886592294674	0
495	167400	43.891592294674	0
495	168550	43.896592294674	0
495	169584	43.901592294674	0
495	170867	43.906592294674	0
495	172022	43.911592294674	0
495	172611	43.916592294674	0
495	173834	43.921938902733	0
495	174692	43.926938902733	0
495	176050	43.932733837953	0
495	176935	43.937733837953	0
495	177539	43.942733837953	0
495	177548	43.947733837953	0
495	178416	43.952733837953	0
495	179698	43.959506454112	0
495	180467	43.964506454112	0
495	181052	43.97175153766	0
495	181954	43.97675153766	0
495	182962	43.98175153766	0
495	183549	43.98675153766	0
495	184552	43.99175153766	0
495	185076	43.99675153766	0
495	185927	44.017447434794	0
495	185928	44.022447434794	0
495	186534	44.037941973853	0
495	186535	44.042941973853	0
495	187154	44.058765274493	0
495	187155	44.063765274493	0
495	187162	44.505	1
495	187299	44.51	0
495	189648	44.516748469849	49
495	191798	44.521748469849	0
495	193335	44.526748469849	0
495	194643	44.531748469849	0
495	196426	44.53901893581	0
495	197989	44.54401893581	0
495	201733	44.553908476608	0
495	202905	44.558908476608	0
495	204051	44.563908476608	0
495	205230	44.568908476608	0
495	206453	44.573908476608	0
495	208279	44.578908476608	0
495	209567	44.583908476608	0
495	210692	44.588908476608	0
495	212330	44.593908476608	0
495	213455	44.598908476608	0
495	217059	44.613162316737	0
495	218691	44.618162316737	0
495	220356	44.624912056333	0
495	220798	44.629912056333	0
495	222050	44.634912056333	0
495	223847	44.639912056333	0
495	225397	44.644912056333	0
495	226694	44.649912056333	0
495	228159	44.654912056333	0
495	229053	44.659912056333	0
495	229941	44.664912056333	0
495	232756	44.673792425864	0
495	233965	44.678792425864	0
495	235239	44.68626478068	0
495	236804	44.69126478068	0
495	238484	44.69626478068	0
495	239243	44.70126478068	0
495	241285	44.708729331298	0
495	242572	44.713729331298	0
495	244360	44.718753656083	0
495	245725	44.723753656083	0
495	247976	44.732982185336	0
495	248977	44.737982185336	0
495	250304	44.742982185336	0
495	251562	44.747982185336	0
495	253004	44.755325917488	0
495	254151	44.760325917488	0
495	255422	44.765325917488	0
495	256298	44.770325917488	0
495	257427	44.775325917488	0
495	258740	44.780325917488	0
495	259465	44.785325917488	0
495	260884	44.79187363779	0
495	261768	44.79687363779	0
495	263290	44.80187363779	0
495	264915	44.808536442712	0
495	266470	44.813536442712	0
495	269148	44.82556954688	0
495	270155	44.83056954688	0
495	272156	44.836384897231	0
495	273681	44.841384897231	0
495	274264	44.846384897231	0
495	275617	44.851384897231	0
495	276640	44.856384897231	0
495	277788	44.861384897231	0
495	279041	44.866384897231	0
495	279654	44.872261876086	0
495	280399	44.877261876086	0
495	281523	44.882261876086	0
495	285036	44.897865862058	0
495	285771	44.902865862058	0
495	286361	44.907865862058	0
495	287363	44.915410471232	0
495	288489	44.920410471232	0
495	289241	44.925410471232	0
495	289827	44.930410471232	0
495	291268	44.938460502438	0
495	292390	44.943460502438	0
495	293500	44.948460502438	0
495	294398	44.956692979546	0
495	295080	44.961692979546	0
495	295775	44.966692979546	0
495	296604	44.971692979546	0
495	296605	44.976692979546	0
495	298015	44.987950249387	0
495	298438	44.992950249387	0
495	299176	44.997950249387	0
495	300019	45.505	1
495	300029	45.51	0
495	301802	45.517797828826	21
495	303177	45.522797828826	0
495	305719	45.539874103893	0
495	306440	45.544874103893	0
495	307960	45.549949248357	0
495	309383	45.554949248357	0
495	310469	45.559949248357	0
495	311471	45.564949248357	0
495	312361	45.569949248357	0
495	313418	45.574949248357	0
495	314937	45.579949248357	0
495	316634	45.589102629586	0
495	317632	45.594102629586	0
495	318617	45.599102629586	0
495	319629	45.604102629586	0
495	320979	45.610877145541	0
495	321284	45.615877145541	0
495	322569	45.622750369015	0
495	323709	45.627750369015	0
495	325252	45.632750369015	0
495	325818	45.637750369015	0
495	327546	45.649544672581	0
495	328443	45.654544672581	0
495	329578	45.659544672581	0
495	330172	45.664544672581	0
495	333020	45.679789613764	0
495	333902	45.684789613764	0
495	334979	45.689789613764	0
495	335686	45.694789613764	0
495	336803	45.700790409358	0
495	338064	45.705790409358	0
495	339864	45.713134440135	0
495	340603	45.718134440135	0
495	341183	45.723134440135	0
495	341315	45.728134440135	0
495	341877	45.734376579488	0
495	342718	45.739376579488	0
495	343669	45.745312287121	0
495	343670	45.750312287121	0
495	344808	45.763385131043	0
495	345781	45.768385131043	0
495	346207	45.777008376572	0
495	346208	45.782008376572	0
495	348765	45.821822644768	0
495	348766	45.826822644768	0
495	349016	46.505	1
495	349026	46.51	0
495	351693	46.517640050326	56
495	354186	46.522640050326	0
495	357058	46.527884646562	0
495	358789	46.532884646562	0
495	360014	46.537884646562	0
495	361243	46.542884646562	0
495	362858	46.547884646562	0
495	364265	46.552884646562	0
495	366504	46.557884646562	0
495	368468	46.562884646562	0
495	369659	46.567884646562	0
495	371106	46.572884646562	0
495	372355	46.577884646562	0
495	374735	46.586056787533	0
495	376294	46.591056787533	0
495	377298	46.596056787533	0
495	379649	46.605305885926	0
495	380848	46.610305885926	0
495	382300	46.615305885926	0
495	383481	46.620305885926	0
495	385204	46.625305885926	0
495	386845	46.630305885926	0
495	387912	46.635305885926	0
495	389373	46.640305885926	0
495	390786	46.645305885926	0
495	391524	46.650305885926	0
495	394934	46.661027308463	0
495	395849	46.666027308463	0
495	397305	46.671027308463	0
495	397910	46.676027308463	0
495	399136	46.681039705986	0
495	400529	46.686039705986	0
495	403120	46.696019090444	0
495	404569	46.701019090444	0
495	405591	46.706019090444	0
495	407028	46.711019090444	0
495	408241	46.716019090444	0
495	410236	46.721019090444	0
495	411386	46.726019090444	0
495	414093	46.735800662221	0
495	415270	46.740800662221	0
495	416879	46.745800662221	0
495	418101	46.750800662221	0
495	419408	46.755800662221	0
495	424916	46.77898417212	0
495	426072	46.78398417212	0
495	428279	46.792677819676	0
495	429410	46.797677819676	0
495	431871	46.80884651969	0
495	433484	46.81384651969	0
495	435016	46.81884651969	0
495	438704	46.830960516437	0
495	439884	46.835960516437	0
495	442338	46.84515484699	0
495	443382	46.85015484699	0
495	444523	46.85515484699	0
495	445791	46.862251616605	0
495	447111	46.867251616605	0
495	448243	46.872251616605	0
495	449417	46.877251616605	0
495	451727	46.887215387833	0
495	452358	46.892215387833	0
495	453556	46.897215387833	0
495	455013	46.904318174195	0
495	456033	46.909318174195	0
495	456681	46.914318174195	0
495	457548	46.91945935702	0
495	458252	46.92445935702	0
495	459040	46.930283961427	0
495	459888	46.935283961427	0
495	462333	46.945376332387	0
495	463291	46.950376332387	0
495	464465	46.955376332387	0
495	465890	46.960376332387	0
495	466609	46.965376332387	0
495	467354	46.970376332387	0
495	468984	46.985373106823	0
495	469612	46.990373106823	0
495	470300	46.995373106823	0
495	471761	47.00095132351	0
495	472340	47.00595132351	0
495	473384	47.015707236263	0
495	474314	47.020707236263	0
495	474912	47.025707236263	0
495	476235	47.030707236263	0
495	476698	47.035707236263	0
495	476699	47.040707236263	0
495	477309	47.057651594212	0
495	477310	47.062651594212	0
495	477453	47.505	1
495	478897	47.51	45
495	481248	47.515	0
495	482694	47.52	0
495	485155	47.530997784987	0
495	486347	47.535997784987	0
495	487407	47.540997784987	0
495	490297	47.551911001253	0
495	491600	47.556911001253	0
495	493338	47.561911001253	0
495	494345	47.566911001253	0
495	495266	47.571911001253	0
495	497150	47.577088483495	0
495	497932	47.582088483495	0
495	498795	47.587088483495	0
495	500616	47.595392539332	0
495	502446	47.600392539332	0
495	503310	47.605392539332	0
495	504510	47.610392539332	0
495	506498	47.61809006188	0
495	507706	47.62309006188	0
495	508727	47.62809006188	0
495	510001	47.63309006188	0
495	511281	47.63809006188	0
495	513839	47.653645650568	0
495	515253	47.658645650568	0
495	517106	47.664348221853	0
495	518515	47.669348221853	0
495	519422	47.674348221853	0
495	520499	47.679348221853	0
495	524971	47.698168196898	0
495	526031	47.703168196898	0
495	527071	47.708168196898	0
495	529818	47.719220801548	0
495	530525	47.724220801548	0
495	531719	47.730284808234	0
495	532877	47.735284808234	0
495	534110	47.740284808234	0
495	535659	47.745284808234	0
495	537803	47.754778734418	0
495	539333	47.759778734418	0
495	540381	47.764778734418	0
495	541743	47.770453690895	0
495	542510	47.775453690895	0
495	543388	47.780453690895	0
495	545060	47.786769310734	0
495	546233	47.791769310734	0
495	547028	47.796769310734	0
495	548216	47.801769310734	0
495	549340	47.806769310734	0
495	551049	47.813652823413	0
495	552063	47.818652823413	0
495	553658	47.823652823413	0
495	554654	47.828652823413	0
495	555658	47.834684488628	0
495	557253	47.839684488628	0
495	558173	47.844684488628	0
495	559351	47.849684488628	0
495	560767	47.854684488628	0
495	561645	47.859684488628	0
495	563989	47.871170490195	0
495	564625	47.876170490195	0
495	565368	47.881170490195	0
495	566534	47.886170490195	0
495	567528	47.891170490195	0
495	569452	47.900502218446	0
495	570163	47.905502218446	0
495	571040	47.910502218446	0
495	572239	47.915502218446	0
495	572715	47.920502218446	0
495	573413	47.925502218446	0
495	574018	47.931049287022	0
495	575105	47.936049287022	0
495	575716	47.941049287022	0
495	575849	47.948806492397	0
495	576882	47.953806492397	0
495	576883	47.958806492397	0
495	578069	47.970569403757	0
495	578070	47.975569403757	0
495	579256	47.997362083678	0
495	580107	48.002362083678	0
495	580108	48.007362083678	0
495	580714	48.017981806074	0
495	580715	48.022981806074	0
495	581768	48.039009415123	0
495	581902	48.044009415123	0
495	581909	48.505	1
495	581916	48.51	0
495	584652	48.519454112615	66
495	587852	48.524454112615	0
495	590128	48.529454112615	0
495	592473	48.534454112615	0
495	593932	48.539454112615	0
495	596351	48.544454112615	0
495	597729	48.549454112615	0
495	599243	48.554454112615	0
495	601660	48.559454112615	0
495	603394	48.564454112615	0
495	604904	48.569454112615	0
495	606664	48.574454112615	0
495	608337	48.579454112615	0
495	610085	48.584454112615	0
495	612363	48.589454112615	0
495	613392	48.594454112615	0
495	615250	48.599454112615	0
495	617003	48.604454112615	0
495	618363	48.609454112615	0
495	619422	48.614454112615	0
495	623634	48.630291080877	0
495	624510	48.635291080877	0
495	630590	48.655231326433	0
495	631958	48.660231326433	0
495	634305	48.666604286928	0
495	636036	48.671604286928	0
495	637381	48.676604286928	0
495	639150	48.681604286928	0
495	642641	48.69111044931	0
495	644603	48.69611044931	0
495	647419	48.704214973652	0
495	649793	48.709214973652	0
495	653961	48.720118279661	0
495	655431	48.725118279661	0
495	657394	48.730118279661	0
495	659024	48.735118279661	0
495	661827	48.743054984288	0
495	663475	48.748054984288	0
495	665117	48.753054984288	0
495	666996	48.758054984288	0
495	670295	48.766585746219	0
495	671547	48.771585746219	0
495	673805	48.776585746219	0
495	676801	48.784240201127	0
495	678401	48.789240201127	0
495	681825	48.799224609354	0
495	683158	48.804224609354	0
495	685602	48.809785016778	0
495	686950	48.814785016778	0
495	688653	48.819785016778	0
495	690192	48.825208622721	0
495	691892	48.830208622721	0
495	693673	48.836195254715	0
495	695264	48.841195254715	0
495	696552	48.846195254715	0
495	698684	48.851228554475	0
495	700605	48.856228554475	0
495	701583	48.861228554475	0
495	702813	48.866228554475	0
495	705108	48.871228554475	0
495	706547	48.876228554475	0
495	708577	48.881228554475	0
495	711857	48.892726561762	0
495	713760	48.897726561762	0
495	715115	48.902726561762	0
495	716939	48.90930828591	0
495	718303	48.91430828591	0
495	719524	48.91930828591	0
495	721409	48.92430828591	0
495	723159	48.92930828591	0
495	724178	48.93430828591	0
495	725939	48.93930828591	0
495	727739	48.946084559389	0
495	729277	48.951084559389	0
495	730762	48.956084559389	0
495	732086	48.961084559389	0
495	735065	48.97060527106	0
495	736561	48.97560527106	0
495	737329	48.98060527106	0
495	739001	48.98936005989	0
495	739747	48.99436005989	0
495	740516	48.99936005989	0
495	742097	49.00436005989	0
495	743277	49.00936005989	0
495	744486	49.01436005989	0
495	745552	49.01936005989	0
495	746993	49.02436005989	0
495	748194	49.02936005989	0
495	748951	49.03436005989	0
495	750387	49.03936005989	0
495	750551	49.04436005989	0
495	752205	49.053427072495	0
495	753218	49.058427072495	0
495	753950	49.063427072495	0
495	755625	49.069770125347	0
495	755761	49.074770125347	0
495	756508	49.080346635987	0
495	757380	49.085346635987	0
495	757721	49.090725785936	0
495	758473	49.095725785936	0
495	759409	49.100725785936	0
495	760437	49.105725785936	0
495	761127	49.110725785936	0
495	761881	49.115725785936	0
495	762868	49.120725785936	0
495	763190	49.125725785936	0
495	764672	49.136794097971	0
495	765000	49.141794097971	0
495	765318	49.146794097971	0
495	765451	49.151794097971	0
495	767089	49.161121407225	0
495	767090	49.166121407225	0
495	767715	49.224977258152	0
495	767716	49.229977258152	0
495	767723	49.505	1
495	767860	49.51	0
495	769683	49.51540064537	30
495	771803	49.52040064537	0
495	773319	49.52540064537	0
495	774763	49.532880218257	0
495	775344	49.537880218257	0
495	776522	49.542880218257	0
495	778109	49.547880218257	0
495	779020	49.552880218257	0
495	780149	49.557880218257	0
495	781429	49.562880218257	0
495	782340	49.567880218257	0
495	783513	49.572880218257	0
495	784702	49.577880218257	0
495	785425	49.582880218257	0
495	788120	49.598210778294	0
495	789191	49.603210778294	0
495	790186	49.608210778294	0
495	793488	49.628929566171	0
495	794515	49.633929566171	0
495	795605	49.638929566171	0
495	796463	49.643929566171	0
495	797539	49.648929566171	0
495	799163	49.656297622708	0
495	800183	49.661297622708	0
495	800189	49.666297622708	0
495	801739	49.674945677113	0
495	802508	49.679945677113	0
495	803202	49.684945677113	0
495	804400	49.690576631987	0
495	805590	49.695576631987	0
495	806152	49.700576631987	0
495	807327	49.705888029582	0
495	808229	49.710888029582	0
495	808990	49.715888029582	0
495	809424	49.720888029582	0
495	810095	49.725888029582	0
495	810701	49.731536482307	0
495	811130	49.736536482307	0
495	812029	49.741536482307	0
495	813035	49.746536482307	0
495	813877	49.751536482307	0
495	814293	49.756536482307	0
495	814454	49.761536482307	0
495	814718	49.766536482307	0
495	816479	49.775640656509	0
495	816895	49.780640656509	0
495	818072	49.792761650209	0
495	818651	49.797761650209	0
495	819818	49.802761650209	0
495	820869	49.807761650209	0
495	821567	49.815802186166	0
495	822031	49.820802186166	0
495	823878	49.832469741379	0
495	824468	49.837469741379	0
495	825073	49.842469741379	0
495	825556	49.847469741379	0
495	826681	49.852469741379	0
495	826980	50.505	1
495	826990	50.51	0
495	828650	50.518099044449	26
495	829824	50.523099044449	0
495	831533	50.528099044449	0
495	832975	50.533099044449	0
495	834108	50.538099044449	0
495	835366	50.543099044449	0
495	836633	50.549299719578	0
495	837485	50.554299719578	0
495	838043	50.559299719578	0
495	841119	50.571635856122	0
495	842039	50.576635856122	0
495	842466	50.581635856122	0
495	843520	50.587729600567	0
495	844938	50.592729600567	0
495	846690	50.600790794316	0
495	847568	50.605790794316	0
495	848291	50.610790794316	0
495	849855	50.61581627705	0
495	850296	50.62081627705	0
495	851614	50.626384426179	0
495	852576	50.631384426179	0
495	853726	50.636572241953	0
495	854477	50.641572241953	0
495	855715	50.646572241953	0
495	857004	50.651572241953	0
495	857147	50.656572241953	0
495	860149	50.672190224437	0
495	860909	50.677190224437	0
495	861518	50.682190224437	0
495	862839	50.687190224437	0
495	864119	50.692190224437	0
495	865686	50.698315391732	0
495	866425	50.703315391732	0
495	867129	50.708315391732	0
495	867396	50.713315391732	0
495	868633	50.718315391732	0
495	869786	50.723315391732	0
495	870501	50.728315391732	0
495	871223	50.733315391732	0
495	872372	50.739486813335	0
495	873504	50.744486813335	0
495	873783	50.749486813335	0
495	874667	50.754867387567	0
495	875411	50.759867387567	0
495	876132	50.764867387567	0
495	877113	50.769867387567	0
495	877114	50.774867387567	0
495	877689	50.783517832825	0
495	878281	50.788517832825	0
495	879282	50.797527797798	0
495	879887	50.802527797798	0
495	880759	50.807527797798	0
495	882485	50.8129470223	0
495	883242	50.8179470223	0
495	884140	50.8229470223	0
495	885250	50.8279470223	0
495	886132	50.8329470223	0
495	886745	50.8379470223	0
495	889679	50.873813854922	0
495	889941	50.878813854922	0
495	890802	50.908424003073	0
495	891362	50.913424003073	0
495	891966	50.924742111089	0
495	891967	50.929742111089	0
495	892238	51.505	1
495	892248	51.51	0
495	895699	51.5171245748	71
495	898750	51.5221245748	0
495	901365	51.5271245748	0
495	903175	51.5321245748	0
495	905408	51.5371245748	0
495	907583	51.5421245748	0
495	909838	51.5471245748	0
495	911927	51.5521245748	0
495	914413	51.5571245748	0
495	916369	51.5621245748	0
495	918017	51.5671245748	0
495	920375	51.5721245748	0
495	922104	51.5771245748	0
495	923596	51.5821245748	0
495	924538	51.5871245748	0
495	926806	51.5921245748	0
495	929427	51.599161773338	0
495	931603	51.604161773338	0
495	934129	51.611356847666	0
495	935747	51.616356847666	0
495	937873	51.621356847666	0
495	939627	51.626356847666	0
495	943470	51.637884360765	0
495	945054	51.642884360765	0
495	946609	51.647884360765	0
495	949140	51.655855309997	0
495	951194	51.660855309997	0
495	953669	51.665855309997	0
495	955375	51.670855309997	0
495	957640	51.675855309997	0
495	963380	51.694406357647	0
495	964998	51.699406357647	0
495	973551	51.726522705531	0
495	975354	51.731522705531	0
495	977474	51.7373741404	0
495	979918	51.7423741404	0
495	981722	51.7473741404	0
495	983613	51.7523741404	0
495	985504	51.7573741404	0
495	987187	51.7623741404	0
495	989244	51.7673741404	0
495	990606	51.7723741404	0
495	992665	51.7773741404	0
495	994731	51.7823741404	0
495	996805	51.7873741404	0
495	1001580	51.804836727521	0
495	1003298	51.809836727521	0
495	1005150	51.814836727521	0
495	1007430	51.819836727521	0
495	1009037	51.824836727521	0
495	1010238	51.829836727521	0
495	1011352	51.834836727521	0
495	1015226	51.846581053727	0
495	1017145	51.851581053727	0
495	1018654	51.856757774422	0
495	1019987	51.861757774422	0
495	1022224	51.868404539486	0
495	1023810	51.873404539486	0
495	1026198	51.878494825892	0
495	1027201	51.883494825892	0
495	1028699	51.889182093428	0
495	1030392	51.894182093428	0
495	1031704	51.899182093428	0
495	1032909	51.904182093428	0
495	1035817	51.910512427864	0
495	1037026	51.915512427864	0
495	1038702	51.920890858093	0
495	1040441	51.925890858093	0
495	1042259	51.930890858093	0
495	1043409	51.935890858093	0
495	1045027	51.940890858093	0
495	1047155	51.948084149914	0
495	1048492	51.953084149914	0
495	1051543	51.963576072843	0
495	1052928	51.968576072843	0
495	1054879	51.973576072843	0
495	1056094	51.978576072843	0
495	1058274	51.983576072843	0
495	1059626	51.988576072843	0
495	1060501	51.993576072843	0