version 2
run AODVScenario_1f-16-20121121-14:46:32-6872
attr configname AODVScenario_1f
attr datetime 20121121-14:46:32
attr experiment AODVScenario_1f
attr inifile AODV.ini
attr iterationvars $numNodes=66
attr iterationvars2 "$numNodes=66, $repetition=0"
attr measurement $numNodes=66
attr network csma802154net
attr numNodes 66
attr processid 6872
attr repetition 0
attr replication #0
attr resultdir results
attr runnumber 16
attr seedset 16

vector 275  csma802154net.dataCentricNetworkMan  RREQPacketFrequency  ETV
vector 276  csma802154net.dataCentricNetworkMan  RERRPacketFrequency  ETV
vector 277  csma802154net.dataCentricNetworkMan  DiscoveryPacketFrequency  ETV
vector 278  csma802154net.dataCentricNetworkMan  RegisterPacketFrequency  ETV
vector 279  csma802154net.dataCentricNetworkMan  RReplyPacketFrequency  ETV
vector 280  csma802154net.dataCentricNetworkMan  AODVDataPacketFrequency  ETV
vector 287  csma802154net.dataCentricNetworkMan  pendingRegistrationVector  ETV
vector 286  csma802154net.dataCentricNetworkMan  pendingRREQVector  ETV
vector 284  csma802154net.dataCentricNetworkMan  PendingDataPacketsVector  ETV
vector 295  csma802154net.fixhost[7].udpApp  "End-to-end delay"  ETV
vector 272  csma802154net.dataCentricNetworkMan  dataPacketE2EDelay  ETV
vector 299  csma802154net.fixhost[11].udpApp  "End-to-end delay"  ETV
vector 303  csma802154net.fixhost[15].udpApp  "End-to-end delay"  ETV
vector 300  csma802154net.fixhost[12].udpApp  "End-to-end delay"  ETV
vector 306  csma802154net.fixhost[18].udpApp  "End-to-end delay"  ETV
vector 311  csma802154net.fixhost[23].udpApp  "End-to-end delay"  ETV
vector 293  csma802154net.fixhost[5].udpApp  "End-to-end delay"  ETV
vector 302  csma802154net.fixhost[14].udpApp  "End-to-end delay"  ETV
vector 308  csma802154net.fixhost[20].udpApp  "End-to-end delay"  ETV
vector 294  csma802154net.fixhost[6].udpApp  "End-to-end delay"  ETV
vector 291  csma802154net.fixhost[3].udpApp  "End-to-end delay"  ETV
272	487433	70.019516036101	0.019516036101
272	487759	70.023316055664	0.023316055664
272	488424	70.032836091382	0.032836091382
272	489965	71.016596056491	0.016596056491
272	490680	71.025444077296	0.025444077296
272	491364	71.032444111062	0.032444111062
272	494112	72.029636107016	0.029636107016
272	494863	72.042572100488	0.042572100488
272	496292	72.0630841343	0.0630841343
272	499288	73.034036155868	0.034036155868
272	499661	73.038236123706	0.038236123706
272	581458	670.016316036102	0.016316036102
272	581785	670.020116055664	0.020116055664
272	582450	670.029636091383	0.029636091383
272	584486	671.021356077297	0.021356077297
272	585328	671.050372056492	0.050372056492
272	585703	671.053740111063	0.053740111063
272	588498	672.034076100487	0.034076100487
272	589644	672.052604107015	0.052604107015
272	591105	672.083172134299	0.083172134299
272	593532	673.028036090561	0.028036090561
272	594612	673.05800412405	0.05800412405
272	676414	1270.014716036102	0.014716036102
272	676741	1270.018836055664	0.018836055664
272	677406	1270.026116091383	0.026116091383
272	678947	1271.017876056492	0.017876056492
272	679662	1271.028324077297	0.028324077297
272	680349	1271.035324111062	0.035324111062
272	682574	1272.023916061188	0.023916061188
272	684408	1272.039404133634	0.039404133634
272	685128	1272.051772165826	0.051772165826
272	687567	1273.02579609056	0.02579609056
272	688647	1273.060812124049	0.060812124049
272	770515	1870.012796036102	0.012796036102
272	770842	1870.016276055665	0.016276055665
272	771507	1870.025156091383	0.025156091383
272	773744	1871.026116110443	0.026116110443
272	774100	1871.033436127523	0.033436127523
272	774451	1871.050300056492	0.050300056492
272	777760	1872.034964100487	0.034964100487
272	779553	1872.062740061188	0.062740061188
272	779920	1872.065572134299	0.065572134299
272	782551	1873.028284090559	0.028284090559
272	783292	1873.037132124049	0.037132124049
272	865094	2470.013436036102	0.013436036102
272	865421	2470.017236055665	0.017236055665
272	866086	2470.027396091384	0.027396091384
272	867977	2471.023596077296	0.023596077296
272	868743	2471.031484111062	0.031484111062
272	869166	2471.055812056491	0.055812056491
272	871067	2472.020396061188	0.020396061188
272	873251	2472.04313216516	0.04313216516
272	873964	2472.049100181894	0.049100181894
272	876745	2473.033436123707	0.033436123707
272	877490	2473.061484155868	0.061484155868
272	959292	3070.014076036101	0.014076036101
272	959619	3070.017556055664	0.017556055664
272	960284	3070.025796091383	0.025796091383
272	961825	3071.018836056492	0.018836056492
272	962540	3071.026724077297	0.026724077297
272	963224	3071.033724111063	0.033724111063
272	965248	3072.01879607387	0.01879607387
272	967431	3072.063044165159	0.063044165159
272	968150	3072.070684181893	0.070684181893
272	970751	3073.02675609056	0.02675609056
272	971488	3073.033684124049	0.033684124049
272	1053357	3670.015036036101	0.015036036101
272	1053683	3670.018516055664	0.018516055664
272	1054348	3670.029316091383	0.029316091383
272	1056577	3671.02509205649	0.02509205649
272	1056950	3671.029244110442	0.029244110442
272	1057303	3671.040724127522	0.040724127522
272	1060054	3672.026436107016	0.026436107016
272	1062029	3672.061484133634	0.061484133634
272	1062748	3672.071292150367	0.071292150367
272	1065751	3673.034356155868	0.034356155868
272	1066125	3673.040332123706	0.040332123706
272	1147923	4270.0175960361	0.0175960361
272	1148249	4270.022036055662	0.022036055662
272	1148914	4270.030916091381	0.030916091381
272	1150455	4271.01627605649	0.01627605649
272	1151169	4271.024164077294	0.024164077294
272	1151854	4271.03084411106	0.03084411106
272	1154422	4272.024732061184	0.024732061184
272	1155927	4272.045444165157	0.045444165157
272	1156641	4272.052692181892	0.052692181892
272	1159268	4273.029636090559	0.029636090559
272	1160009	4273.039052124048	0.039052124048
272	1241811	4870.013436036102	0.013436036102
272	1242138	4870.017236055665	0.017236055665
272	1242803	4870.026116091384	0.026116091384
272	1244702	4871.021676077297	0.021676077297
272	1245396	4871.032444111063	0.032444111063
272	1245746	4871.035260056492	0.035260056492
272	1247989	4872.028324061188	0.028324061188
272	1249491	4872.039764100488	0.039764100488
272	1250681	4872.073180134299	0.073180134299
272	1253308	4873.030876123706	0.030876123706
272	1254048	4873.039476155867	0.039476155867
272	1335916	5470.011836036102	0.011836036102
272	1336243	5470.017236055665	0.017236055665
272	1336908	5470.025156091384	0.025156091384
272	1338940	5471.022636077297	0.022636077297
272	1339279	5471.024916056492	0.024916056492
272	1339992	5471.052284111063	0.052284111063
272	1342381	5472.025444061187	0.025444061187
272	1344378	5472.060492100487	0.060492100487
272	1345620	5472.096076134297	0.096076134297
272	1348047	5473.029956090561	0.029956090561
272	1349127	5473.05896412405	0.05896412405
272	1430929	6070.013436036102	0.013436036102
272	1431256	6070.017876055665	0.017876055665
272	1431921	6070.025156091384	0.025156091384
272	1433460	6071.014996056492	0.014996056492
272	1434683	6071.050012077297	0.050012077297
272	1435522	6071.079340111062	0.079340111062
272	1438128	6072.025444061186	0.025444061186
272	1439585	6072.037844100486	0.037844100486
272	1440304	6072.045732134298	0.045732134298
272	1442931	6073.030876123707	0.030876123707
272	1443666	6073.036276155868	0.036276155868
272	1525468	6670.011516036102	0.011516036102
272	1525795	6670.015636055665	0.015636055665
272	1526460	6670.025156091384	0.025156091384
272	1528139	6671.018516056492	0.018516056492
272	1529198	6671.053244110443	0.053244110443
272	1529549	6671.057044127523	0.057044127523
272	1532183	6672.026084061188	0.026084061188
272	1533472	6672.058604133634	0.058604133634
272	1534663	6672.092660165822	0.092660165822
272	1537023	6673.024836090561	0.024836090561
272	1538181	6673.06113212405	0.06113212405
272	1620049	7270.015996036099	0.015996036099
272	1620376	7270.019796055662	0.019796055662
272	1621041	7270.028356091381	0.028356091381
272	1622940	7271.020076077296	0.020076077296
272	1623352	7271.022852056492	0.022852056492
272	1624134	7271.05509211106	0.05509211106
272	1627249	7272.029596100487	0.029596100487
272	1627578	7272.033692061187	0.033692061187
272	1629039	7272.060844134299	0.060844134299
272	1631465	7273.024836090561	0.024836090561
272	1632545	7273.05480412405	0.05480412405
275	521	1.005	1
275	531	1.01	0
275	776	1.017573297519	10
275	1295	1.022573297519	49
275	2352	1.027573297519	58
275	3498	1.032573297519	39
275	4739	1.037573297519	77
275	6034	1.042573297519	51
275	7125	1.047573297519	37
275	7984	1.052573297519	21
275	8822	1.057573297519	42
275	9328	1.062573297519	28
275	9850	1.067573297519	47
275	10240	1.072573297519	21
275	10477	1.077573297519	18
275	11255	1.082573297519	45
275	11366	1.087573297519	10
275	11665	1.092573297519	29
275	12295	1.097573297519	44
275	12302	1.102573297519	0
275	12858	1.110108407158	58
275	13242	1.115108407158	34
275	13438	1.120108407158	27
275	13439	1.125108407158	0
275	14030	1.148579701618	64
275	14031	1.153579701618	0
275	19768	43.505	1
275	19850	43.51	0
275	20619	43.51687301579	20
275	21481	43.52187301579	0
275	22628	43.532628833038	0
275	23044	43.537628833038	0
275	23833	43.542628833038	0
275	24462	43.547628833038	0
275	25340	43.557147412816	0
275	25743	43.562147412816	0
275	26161	43.567147412816	0
275	26939	43.572147412816	0
275	27321	43.577147412816	0
275	28619	43.589132502312	0
275	29024	43.594132502312	0
275	29584	43.599132502312	0
275	30629	43.609196453658	0
275	30799	43.614196453658	0
275	31404	43.619465804491	0
275	31993	43.624465804491	0
275	33659	43.641162332618	0
275	34206	43.646162332618	0
275	36267	43.665114681068	0
275	36592	43.670114681068	0
275	37222	43.676784477923	0
275	37693	43.681784477923	0
275	39400	43.700319845963	0
275	40247	43.705319845963	0
275	40506	43.710319845963	0
275	40895	43.715319845963	0
275	41579	43.720319845963	0
275	42151	43.725319845963	0
275	42710	43.730319845963	0
275	43924	43.744632332618	0
275	44344	43.749632332618	0
275	45059	43.756347224014	0
275	45307	43.761347224014	0
275	46082	43.766506706424	0
275	46685	43.771506706424	0
275	47384	43.776506706424	0
275	47689	43.781506706424	0
275	48484	43.787091786734	0
275	48649	43.792091786734	0
275	49284	43.801404453708	0
275	49834	43.806404453708	0
275	50239	43.811404453708	0
275	50826	43.832346352005	0
275	50827	43.837346352005	0
275	51169	43.879122786131	0
275	51170	43.884122786131	0
275	51310	44.505	1
275	51320	44.51	0
275	52101	44.517253443844	13
275	52672	44.522253443844	0
275	53769	44.529196982114	0
275	54144	44.534196982114	0
275	54809	44.539196982114	0
275	55219	44.544196982114	0
275	55744	44.549196982114	0
275	56232	44.554196982114	0
275	56507	44.559196982114	0
275	57006	44.564196982114	0
275	57705	44.569196982114	0
275	58087	44.574196982114	0
275	59989	44.598775338012	0
275	60457	44.603775338012	0
275	60833	44.608885004482	0
275	61210	44.613885004482	0
275	61514	44.635936752229	0
275	61515	44.640936752229	0
275	62135	44.650977111921	0
275	62444	44.655977111921	0
275	62448	44.660977111921	0
275	63067	44.675879109998	0
275	63068	44.680879109998	0
275	63214	45.505	1
275	63601	45.51	41
275	65313	45.515	0
275	66770	45.52	0
275	67720	45.525	0
275	68617	45.53	0
275	69272	45.535	0
275	70142	45.54	0
275	71328	45.545	0
275	72114	45.55	0
275	72694	45.555	0
275	73801	45.562842662841	0
275	74843	45.567842662841	0
275	77653	45.587154882123	0
275	78244	45.592154882123	0
275	78909	45.597154882123	0
275	79611	45.602154882123	0
275	81273	45.612103463828	0
275	82018	45.617103463828	0
275	82445	45.622103463828	0
275	84072	45.633319737835	0
275	84607	45.638319737835	0
275	85192	45.643319737835	0
275	86746	45.655104832843	0
275	87619	45.660104832843	0
275	88781	45.667298231015	0
275	89730	45.672298231015	0
275	90696	45.68100285563	0
275	91594	45.68600285563	0
275	94687	45.707687479439	0
275	95569	45.712687479439	0
275	96601	45.72026855957	0
275	97366	45.72526855957	0
275	97956	45.73026855957	0
275	98628	45.73526855957	0
275	99071	45.74026855957	0
275	100197	45.746786046604	0
275	100711	45.751786046604	0
275	101596	45.756786046604	0
275	102418	45.761786046604	0
275	102935	45.766786046604	0
275	103759	45.771786046604	0
275	106677	45.793270676578	0
275	107250	45.798270676578	0
275	107962	45.803270676578	0
275	109256	45.811690295584	0
275	110085	45.816690295584	0
275	110915	45.821690295584	0
275	111760	45.826690295584	0
275	112287	45.831690295584	0
275	113125	45.837395412167	0
275	113643	45.842395412167	0
275	114381	45.847395412167	0
275	115677	45.857657247053	0
275	116108	45.862657247053	0
275	119452	45.888313077913	0
275	119943	45.893313077913	0
275	120579	45.898313077913	0
275	121439	45.903313077913	0
275	122049	45.908313077913	0
275	122489	45.913313077913	0
275	123242	45.918313077913	0
275	123604	45.923313077913	0
275	123868	45.928313077913	0
275	124429	45.934068084767	0
275	124911	45.939068084767	0
275	125086	45.944068084767	0
275	125593	45.949068084767	0
275	125679	45.954068084767	0
275	126665	45.961854297169	0
275	127358	45.966854297169	0
275	127697	45.971854297169	0
275	127938	45.976854297169	0
275	128976	45.989315263501	0
275	129052	45.994315263501	0
275	129465	46.000546848768	0
275	129466	46.005546848768	0
275	129823	46.021695376073	0
275	129824	46.026695376073	0
275	130172	46.042960865459	0
275	130173	46.047960865459	0
275	130261	46.505	1
275	131357	46.51	41
275	133253	46.515	0
275	134323	46.52	0
275	135075	46.525	0
275	136073	46.531531243478	0
275	136913	46.536531243478	0
275	137746	46.541531243478	0
275	139317	46.550934669889	0
275	140039	46.555934669889	0
275	140839	46.560934669889	0
275	141657	46.565934669889	0
275	143141	46.575715992067	0
275	143783	46.580715992067	0
275	144406	46.585715992067	0
275	145144	46.590715992067	0
275	146323	46.596601750061	0
275	147218	46.601601750061	0
275	148163	46.606601750061	0
275	148821	46.611601750061	0
275	149828	46.618077242563	0
275	150286	46.623077242563	0
275	151189	46.628077242563	0
275	151767	46.633077242563	0
275	154378	46.652098492164	0
275	155100	46.657098492164	0
275	156207	46.66281529854	0
275	156956	46.66781529854	0
275	158814	46.68315451571	0
275	159399	46.68815451571	0
275	161416	46.702540470209	0
275	162495	46.707540470209	0
275	163491	46.712540470209	0
275	164667	46.721889289082	0
275	165277	46.726889289082	0
275	165790	46.731889289082	0
275	166765	46.736889289082	0
275	167796	46.741889289082	0
275	169441	46.754963216544	0
275	169942	46.759963216544	0
275	171332	46.770331220255	0
275	171988	46.775331220255	0
275	172809	46.7831700029	0
275	173254	46.7881700029	0
275	174225	46.7931700029	0
275	174953	46.7981700029	0
275	175619	46.8031700029	0
275	176136	46.8081700029	0
275	176694	46.8131700029	0
275	177447	46.8181700029	0
275	178297	46.8231700029	0
275	178551	46.8281700029	0
275	179156	46.833301800919	0
275	179770	46.838301800919	0
275	180550	46.844787462422	0
275	181378	46.849787462422	0
275	182425	46.857421501182	0
275	183019	46.862421501182	0
275	183920	46.870100148891	0
275	184641	46.875100148891	0
275	185830	46.886304299	0
275	186105	46.891304299	0
275	187526	46.902341478477	0
275	188102	46.907341478477	0
275	188945	46.918584941168	0
275	189611	46.923584941168	0
275	190014	46.928584941168	0
275	190601	46.934443216544	0
275	191349	46.939443216544	0
275	193060	46.955193749388	0
275	193628	46.960193749388	0
275	194397	46.968033814381	0
275	194820	46.973033814381	0
275	195645	46.984073793238	0
275	196104	46.989073793238	0
275	196534	46.994073793238	0
275	197251	46.999073793238	0
275	197555	47.004073793238	0
275	197917	47.010029691877	0
275	198092	47.015029691877	0
275	198435	47.022673556721	0
275	198436	47.027673556721	0
275	199481	47.079443590779	0
275	199482	47.084443590779	0
275	199489	47.505	1
275	199502	47.51	0
275	200401	47.51692508695	21
275	201228	47.52192508695	0
275	201946	47.52692508695	0
275	202731	47.532382004176	0
275	203167	47.537382004176	0
275	203869	47.542382004176	0
275	204661	47.547382004176	0
275	205285	47.552382004176	0
275	206197	47.563450559481	0
275	206613	47.568450559481	0
275	206998	47.573450559481	0
275	208200	47.585441439469	0
275	208468	47.590441439469	0
275	209526	47.600058945012	0
275	209971	47.605058945012	0
275	210576	47.610058945012	0
275	211177	47.615058945012	0
275	211736	47.620058945012	0
275	212244	47.625634503266	0
275	212578	47.630634503266	0
275	214928	47.654053236604	0
275	215294	47.659053236604	0
275	215757	47.664053236604	0
275	217338	47.684098539608	0
275	217886	47.689098539608	0
275	218703	47.694098539608	0
275	220037	47.704733264828	0
275	220301	47.709733264828	0
275	221607	47.721767429606	0
275	222220	47.726767429606	0
275	222794	47.731767429606	0
275	223365	47.736767429606	0
275	224020	47.741767429606	0
275	224521	47.746767429606	0
275	224876	47.751767429606	0
275	225358	47.756767429606	0
275	225919	47.762124185812	0
275	226402	47.767124185812	0
275	226797	47.772124185812	0
275	227356	47.778062364633	0
275	227749	47.783062364633	0
275	228150	47.796390177782	0
275	228337	47.801390177782	0
275	228765	47.806390177782	0
275	229085	47.811390177782	0
275	229405	47.816732164061	0
275	229413	47.821732164061	0
275	230910	47.837430173673	0
275	230911	47.842430173673	0
275	231255	47.863473446248	0
275	231256	47.868473446248	0
275	231396	48.505	1
275	231403	48.51	0
275	232587	48.518904410276	32
275	233553	48.523904410276	0
275	235664	48.537708923162	0
275	236400	48.542708923162	0
275	236992	48.547708923162	0
275	238931	48.561932931921	0
275	239612	48.566932931921	0
275	240303	48.571932931921	0
275	240921	48.576932931921	0
275	241545	48.582270828066	0
275	242069	48.587270828066	0
275	243553	48.596927312985	0
275	244239	48.601927312985	0
275	244663	48.606927312985	0
275	245165	48.611927312985	0
275	245774	48.616927312985	0
275	246637	48.622548960689	0
275	247486	48.627548960689	0
275	248275	48.632548960689	0
275	248776	48.637548960689	0
275	249352	48.642548960689	0
275	249993	48.648353084714	0
275	250735	48.653353084714	0
275	251710	48.65929297373	0
275	252440	48.66429297373	0
275	253172	48.66929297373	0
275	253948	48.67429297373	0
275	254570	48.67929297373	0
275	255080	48.68429297373	0
275	255974	48.690567331244	0
275	256493	48.695567331244	0
275	257201	48.700567331244	0
275	257894	48.705567331244	0
275	258795	48.710567331244	0
275	259300	48.715567331244	0
275	259845	48.720567331244	0
275	260425	48.725567331244	0
275	261041	48.730567331244	0
275	261783	48.735567331244	0
275	263172	48.749740959548	0
275	264036	48.754740959548	0
275	264397	48.759740959548	0
275	264919	48.764740959548	0
275	266262	48.777767037845	0
275	266835	48.782767037845	0
275	267251	48.787767037845	0
275	268248	48.794329115707	0
275	268613	48.799329115707	0
275	269044	48.804329115707	0
275	270757	48.825655605962	0
275	271171	48.830655605962	0
275	271630	48.835655605962	0
275	272738	48.843909836348	0
275	273167	48.848909836348	0
275	273448	48.853909836348	0
275	274005	48.858909836348	0
275	274587	48.863909836348	0
275	274850	48.868909836348	0
275	275488	48.873991631046	0
275	275489	48.878991631046	0
275	276654	48.892215943295	0
275	277006	48.897215943295	0
275	277009	48.908663097963	0
275	277014	48.913663097963	0
275	277362	48.920683441083	0
275	277363	48.925683441083	0
275	277721	48.943127902216	0
275	277722	48.948127902216	0
275	278071	48.95746018088	0
275	278072	48.96246018088	0
275	278232	49.505	1
275	278239	49.51	0
275	279548	49.518949975529	33
275	280683	49.523949975529	0
275	281837	49.528949975529	0
275	283024	49.533949975529	0
275	283551	49.538949975529	0
275	284394	49.543949975529	0
275	285029	49.548949975529	0
275	286090	49.553949975529	0
275	286836	49.558949975529	0
275	287683	49.563949975529	0
275	288423	49.568949975529	0
275	289291	49.573949975529	0
275	290053	49.578949975529	0
275	290713	49.583949975529	0
275	291433	49.588949975529	0
275	292223	49.593949975529	0
275	293132	49.598949975529	0
275	293805	49.603949975529	0
275	295144	49.613187190927	0
275	295408	49.618187190927	0
275	296141	49.624466327498	0
275	296675	49.629466327498	0
275	297463	49.634466327498	0
275	298565	49.641324855986	0
275	299278	49.646324855986	0
275	299860	49.651324855986	0
275	300390	49.656760819962	0
275	300907	49.661760819962	0
275	301982	49.671804043721	0
275	302492	49.676804043721	0
275	303188	49.681804043721	0
275	303933	49.686804043721	0
275	308057	49.717742707553	0
275	308498	49.722742707553	0
275	309352	49.727742707553	0
275	310038	49.732742707553	0
275	310804	49.737742707553	0
275	311651	49.742742707553	0
275	312428	49.751074355667	0
275	313070	49.756074355667	0
275	314071	49.763796557891	0
275	314913	49.768796557891	0
275	315275	49.773796557891	0
275	315973	49.778796557891	0
275	316574	49.783796557891	0
275	317281	49.79042282033	0
275	318122	49.79542282033	0
275	318780	49.80042282033	0
275	319566	49.805760870846	0
275	319935	49.810760870846	0
275	321021	49.821417784358	0
275	321620	49.826417784358	0
275	322271	49.831417784358	0
275	322626	49.836417784358	0
275	323001	49.841417784358	0
275	323631	49.846417784358	0
275	324148	49.851417784358	0
275	325235	49.856417784358	0
275	325903	49.861417784358	0
275	326395	49.866417784358	0
275	326932	49.871417784358	0
275	327258	49.876417784358	0
275	328189	49.893419191436	0
275	328752	49.898419191436	0
275	328918	49.903419191436	0
275	330082	49.927374793407	0
275	330565	49.932374793407	0
275	331228	50.505	1
275	331235	50.51	0
275	331680	50.520272740026	8
275	332509	50.525272740026	0
275	332983	50.530272740026	0
275	333518	50.535272740026	0
275	333603	50.540272740026	0
275	334225	50.545272740026	0
275	334490	50.550272740026	0
275	335456	50.555272740026	0
275	335866	50.560272740026	0
275	336270	50.565272740026	0
275	336837	50.570272740026	0
275	337351	50.575272740026	0
275	337536	50.580272740026	0
275	338097	50.585272740026	0
275	338540	50.590272740026	0
275	339042	50.595272740026	0
275	339121	50.600272740026	0
275	339596	50.607082043051	0
275	339922	50.612082043051	0
275	340515	50.618373356544	0
275	340875	50.623373356544	0
275	341566	50.628373356544	0
275	342130	50.633373356544	0
275	342460	50.638373356544	0
275	342766	50.643373356544	0
275	343760	50.663522939076	0
275	344088	50.668522939076	0
275	344089	50.673522939076	0
275	344465	50.703938238752	0
275	344828	50.708938238752	0
275	344829	50.713938238752	0
275	345016	51.505	1
275	345243	51.51	11
275	346128	51.515	0
275	347022	51.52	0
275	347973	51.525	0
275	348753	51.53	0
275	349631	51.535	0
275	350109	51.54	0
275	350626	51.545	0
275	351036	51.55	0
275	351196	51.555	0
275	351642	51.561661088193	0
275	352312	51.566661088193	0
275	352657	51.571661088193	0
275	352888	51.576661088193	0
275	353519	51.582015664225	0
275	353965	51.587015664225	0
275	354591	51.592015664225	0
275	354849	51.597015664225	0
275	355487	51.602015664225	0
275	355827	51.607664545187	0
275	356399	51.612664545187	0
275	357368	51.628424538326	0
275	357781	51.633424538326	0
275	359018	51.64860443147	0
275	359025	51.65360443147	0
275	359506	51.667393115987	0
275	359507	51.672393115987	0
275	360185	51.689168570038	0
275	360522	51.694168570038	0
275	361252	51.701152618895	0
275	361583	51.706152618895	0
275	362236	51.721809142286	0
275	362237	51.726809142286	0
275	362424	52.505	1
275	362713	52.51	25
275	363873	52.515	0
275	364892	52.52	0
275	365728	52.525	0
275	366463	52.53	0
275	366975	52.535	0
275	367664	52.54	0
275	368389	52.545	0
275	369199	52.55	0
275	369731	52.555	0
275	370172	52.56	0
275	370900	52.565	0
275	371780	52.57	0
275	372631	52.575	0
275	373416	52.58	0
275	374018	52.585	0
275	374528	52.59	0
275	375138	52.595	0
275	375943	52.60211196645	0
275	376467	52.60711196645	0
275	377056	52.61211196645	0
275	378008	52.61711196645	0
275	378571	52.62211196645	0
275	379255	52.627269176429	0
275	379778	52.632269176429	0
275	380593	52.637903636279	0
275	381410	52.642903636279	0
275	381843	52.647903636279	0
275	382530	52.656311696115	0
275	383186	52.661311696115	0
275	383941	52.666311696115	0
275	384623	52.671311696115	0
275	385429	52.676311696115	0
275	386111	52.681311696115	0
275	386895	52.691453371556	0
275	387152	52.696453371556	0
275	387575	52.701453371556	0
275	388103	52.706453371556	0
275	388384	52.711453371556	0
275	388751	52.716453371556	0
275	388752	52.721453371556	0
275	389582	52.731193805004	0
275	390083	52.736193805004	0
275	390093	52.741193805004	0
275	390422	52.746193805004	0
275	390424	52.751193805004	0
275	391285	52.766153171135	0
275	391469	52.771153171135	0
275	391471	52.776153171135	0
275	393030	52.803663722134	0
275	393633	52.808663722134	0
275	393891	52.813663722134	0
275	394999	52.880717660896	0
275	395293	52.885717660896	0
275	395294	52.890717660896	0
275	395455	53.505	1
275	395462	53.51	0
275	396747	53.518834316649	31
275	397989	53.523834316649	0
275	399047	53.528834316649	0
275	400087	53.533834316649	0
275	400756	53.538834316649	0
275	401851	53.543834316649	0
275	402771	53.548834316649	0
275	403496	53.553834316649	0
275	404610	53.558834316649	0
275	405141	53.563834316649	0
275	405859	53.568834316649	0
275	406775	53.573834316649	0
275	408257	53.579563133394	0
275	408890	53.584563133394	0
275	409860	53.590928794871	0
275	410597	53.595928794871	0
275	411156	53.600928794871	0
275	412478	53.605928794871	0
275	413527	53.610928794871	0
275	414305	53.615928794871	0
275	414893	53.620928794871	0
275	415642	53.626803419732	0
275	416288	53.631803419732	0
275	417110	53.636803419732	0
275	418254	53.645582717002	0
275	419012	53.650582717002	0
275	419095	53.655582717002	0
275	421249	53.667270686427	0
275	421655	53.672270686427	0
275	422207	53.677304860751	0
275	422925	53.682304860751	0
275	423612	53.687304860751	0
275	424464	53.692304860751	0
275	425936	53.703545008058	0
275	426596	53.708545008058	0
275	427098	53.713545008058	0
275	427829	53.718545008058	0
275	428180	53.723545008058	0
275	428632	53.731155161729	0
275	429169	53.736155161729	0
275	429521	53.741155161729	0
275	430380	53.746155161729	0
275	431056	53.751155161729	0
275	431563	53.756155161729	0
275	432331	53.761155161729	0
275	432512	53.766155161729	0
275	433166	53.771155161729	0
275	433527	53.776155161729	0
275	433543	53.781155161729	0
275	434587	53.797327393795	0
275	434591	53.802327393795	0
275	435468	53.810385239781	0
275	436029	53.815385239781	0
275	436468	53.820385239781	0
275	436768	53.825385239781	0
275	436774	53.830385239781	0
275	437572	53.838091731181	0
275	437644	53.843091731181	0
275	438780	53.886312874585	0
275	439078	53.891312874585	0
275	439079	53.896312874585	0
275	440148	53.938112885414	0
275	440224	53.943112885414	0
275	440518	53.948912913589	0
275	440519	53.953912913589	0
275	441302	54.505	26
275	442098	54.51	0
275	443261	54.515	0
275	444446	54.52	0
275	445846	54.525	0
275	446733	54.53	0
275	447800	54.535	0
275	448528	54.54	0
275	450267	54.550037985125	0
275	451359	54.555037985125	0
275	452334	54.560037985125	0
275	453390	54.565037985125	0
275	454296	54.570037985125	0
275	455102	54.575037985125	0
275	455823	54.580037985125	0
275	456397	54.585037985125	0
275	457100	54.591350917572	0
275	457825	54.596350917572	0
275	458508	54.601361728142	0
275	458976	54.606361728142	0
275	459607	54.611361728142	0
275	460739	54.617600095468	0
275	461446	54.622600095468	0
275	462106	54.627600095468	0
275	462881	54.632600095468	0
275	463618	54.637600095468	0
275	464230	54.642600095468	0
275	465270	54.651584244435	0
275	465840	54.656584244435	0
275	466476	54.661584244435	0
275	466992	54.666584244435	0
275	467797	54.671584244435	0
275	468354	54.676584244435	0
275	469665	54.684975483319	0
275	470210	54.689975483319	0
275	470647	54.694975483319	0
275	471289	54.700942594076	0
275	471807	54.705942594076	0
275	472152	54.710942594076	0
275	475280	54.737030064868	0
275	475366	54.742030064868	0
275	475702	54.749233689878	0
275	476348	54.754233689878	0
275	476802	54.759233689878	0
275	477473	54.764233689878	0
275	478001	54.769233689878	0
275	479555	54.795030916243	0
275	479988	54.800030916243	0
275	480435	54.807550946735	0
275	481059	54.812550946735	0
275	481136	54.817550946735	0
275	481809	54.824288865921	0
275	482314	54.829288865921	0
275	482467	54.834288865921	0
275	483390	54.858081636329	0
275	483903	54.863081636329	0
275	483904	54.868081636329	0
275	484281	54.890338681146	0
275	484282	54.895338681146	0
275	486936	70.00501	0
275	487122	70.01001	0
275	487275	70.01501	0
275	487918	70.024516036101	0
275	488248	70.029516036101	0
275	488616	70.034516036101	0
275	488617	70.039516036101	0
275	489105	71.00501	0
275	489466	71.01001	0
275	489795	71.01501	0
275	490158	71.02001	0
275	490571	71.02501	0
275	491183	71.03001	0
275	491542	71.03501	0
275	491543	71.04001	0
275	492058	72.00501	0
275	492419	72.01001	0
275	492743	72.01501	0
275	493228	72.02001	0
275	493634	72.02501	0
275	494186	72.03001	0
275	494298	72.03501	0
275	494749	72.041532086302	0
275	495352	72.046532086302	0
275	495728	72.051532086302	0
275	495732	72.056532086302	0
275	496366	72.063324119448	0
275	496450	72.068324119448	0
275	496946	73.00501	0
275	497315	73.01001	0
275	497663	73.01501	0
275	498007	73.02001	0
275	498349	73.02501	0
275	498906	73.03001	0
275	499466	73.03501	0
275	499834	73.04001	0
275	499835	73.04501	0
275	580962	670.00501	0
275	580966	670.01001	0
275	581532	670.016566022545	0
275	581944	670.021566022545	0
275	582274	670.026566022545	0
275	582642	670.031566022545	0
275	582643	670.036566022545	0
275	583131	671.00501	0
275	583492	671.01001	0
275	583821	671.01501	0
275	584169	671.02001	0
275	584809	671.02501	0
275	584810	671.03001	0
275	585402	671.050604102213	0
275	585881	671.055604102213	0
275	585882	671.060604102213	0
275	586397	672.00501	0
275	586473	672.01001	0
275	587073	672.01592603225	0
275	587558	672.02092603225	0
275	587934	672.02592603225	0
275	588312	672.03092603225	0
275	588653	672.03592603225	0
275	588656	672.04092603225	0
275	589545	672.052172046805	0
275	589826	672.057172046805	0
275	589827	672.062172046805	0
275	590544	672.07549209565	0
275	590919	672.08049209565	0
275	591262	672.08549209565	0
275	591263	672.09049209565	0
275	591759	673.00501	0
275	592128	673.01001	0
275	592476	673.01501	0
275	592817	673.02001	0
275	593337	673.02501	0
275	593705	673.03001	0
275	593706	673.03501	0
275	594120	673.053804095713	0
275	594790	673.058804095713	0
275	594791	673.063804095713	0
275	675918	1270.00501	0