version 2
run AODVScenario_1e-0-20121031-18:30:04-3360
attr configname AODVScenario_1e
attr datetime 20121031-18:30:04
attr experiment AODVScenario_1e
attr inifile AODV.ini
attr iterationvars ""
attr iterationvars2 $repetition=0
attr measurement ""
attr network csma802154net
attr processid 3360
attr repetition 0
attr replication #0
attr resultdir results
attr runnumber 0
attr seedset 0

vector 517  csma802154net.dataCentricNetworkMan  pendingRREQVector  ETV
vector 511  csma802154net.dataCentricNetworkMan  RREQPacketFrequency  ETV
vector 512  csma802154net.dataCentricNetworkMan  DiscoveryPacketFrequency  ETV
vector 513  csma802154net.dataCentricNetworkMan  RegisterPacketFrequency  ETV
vector 514  csma802154net.dataCentricNetworkMan  RReplyPacketFrequency  ETV
vector 515  csma802154net.dataCentricNetworkMan  AODVDataPacketFrequency  ETV
vector 518  csma802154net.dataCentricNetworkMan  pendingRegistrationVector  ETV
vector 525  csma802154net.fixhost[6].udpApp  "End-to-end delay"  ETV
vector 508  csma802154net.dataCentricNetworkMan  dataPacketE2EDelay  ETV
vector 538  csma802154net.fixhost[19].udpApp  "End-to-end delay"  ETV
vector 539  csma802154net.fixhost[20].udpApp  "End-to-end delay"  ETV
vector 536  csma802154net.fixhost[17].udpApp  "End-to-end delay"  ETV
vector 531  csma802154net.fixhost[12].udpApp  "End-to-end delay"  ETV
vector 528  csma802154net.fixhost[9].udpApp  "End-to-end delay"  ETV
vector 529  csma802154net.fixhost[10].udpApp  "End-to-end delay"  ETV
vector 522  csma802154net.fixhost[3].udpApp  "End-to-end delay"  ETV
vector 521  csma802154net.fixhost[2].udpApp  "End-to-end delay"  ETV
vector 520  csma802154net.fixhost[1].udpApp  "End-to-end delay"  ETV
vector 535  csma802154net.fixhost[16].udpApp  "End-to-end delay"  ETV
vector 530  csma802154net.fixhost[11].udpApp  "End-to-end delay"  ETV
508	94639	70.008996037287	0.008996037287
508	95348	70.012796074584	0.012796074584
508	96032	70.017236101132	0.017236101132
508	97695	71.009636036606	0.009636036606
508	194848	71.267440000226	0.267440000226
508	207090	71.319416044399	0.319416044399
508	324246	72.340690827033	0.340690827033
508	467891	73.370728063635	0.370728063635
508	488087	73.494964224421	0.494964224421
508	488833	73.4992442123	0.4992442123
508	546619	74.999571272385	2.999571272385
508	617608	80.645869964572	8.645869964572
508	772524	670.009316037288	0.009316037288
508	773233	670.013756074585	0.013756074585
508	773917	670.017556101133	0.017556101133
508	775578	671.009956043737	0.009956043737
508	776238	671.01503608791	0.01503608791
508	776902	671.018836124952	0.018836124952
508	781424	672.02643613366	0.02643613366
508	782867	672.037204159115	0.037204159115
508	783588	672.064876099527	0.064876099527
508	787762	673.02551608049	0.02551608049
508	790583	673.067284135941	0.067284135941
508	791329	673.11880416151	0.11880416151
508	945762	1270.008676037288	0.008676037288
508	946471	1270.012156074585	0.012156074585
508	947155	1270.016596101133	0.016596101133
508	948816	1271.008036043737	0.008036043737
508	949476	1271.01343608791	0.01343608791
508	950140	1271.017556124952	0.017556124952
508	954597	1272.046244099526	0.046244099526
508	957010	1272.07966013366	0.07966013366
508	958453	1272.088260159114	0.088260159114
508	962374	1273.021676080489	0.021676080489
508	965188	1273.03464413594	0.03464413594
508	965934	1273.037524161509	0.037524161509
508	1120368	1870.008036037287	0.008036037287
508	1121077	1870.013116074584	0.013116074584
508	1121761	1870.017876101132	0.017876101132
508	1123422	1871.008676043737	0.008676043737
508	1124082	1871.01311608791	0.01311608791
508	1124746	1871.017556124952	0.017556124952
508	1129274	1872.023204099527	0.023204099527
508	1129998	1872.02668413366	0.02668413366
508	1131440	1872.040332159115	0.040332159115
508	1137494	1873.035676161509	0.035676161509
508	1138216	1873.03880413594	0.03880413594
508	1138958	1873.054420080488	0.054420080488
508	1293367	2470.007396037288	0.007396037288
508	1294076	2470.012156074585	0.012156074585
508	1294760	2470.017236101133	0.017236101133
508	1296421	2471.009956043737	0.009956043737
508	1297081	2471.01471608791	0.01471608791
508	1297745	2471.019156124952	0.019156124952
508	1302203	2472.042404099527	0.042404099527
508	1303619	2472.052532133659	0.052532133659
508	1305062	2472.060812159114	0.060812159114
508	1308981	2473.01975608049	0.01975608049
508	1312090	2473.058644135941	0.058644135941
508	1312837	2473.081788161509	0.081788161509
508	1467270	3070.008996037288	0.008996037288
508	1467979	3070.014396074585	0.014396074585
508	1468663	3070.018516101133	0.018516101133
508	1470324	3071.007716043736	0.007716043736
508	1470984	3071.011516087909	0.011516087909
508	1471648	3071.01659612495	0.01659612495
508	1475471	3072.020396099527	0.020396099527
508	1477599	3072.03013213366	0.03013213366
508	1478334	3072.032404159115	0.032404159115
508	1482959	3073.02736408049	0.02736408049
508	1484373	3073.034644135941	0.034644135941
508	1485829	3073.04769216151	0.04769216151
508	1640262	3670.009956037288	0.009956037288
508	1640971	3670.013756074585	0.013756074585
508	1641655	3670.017556101133	0.017556101133
508	1643316	3671.008356043737	0.008356043737
508	1643976	3671.01183608791	0.01183608791
508	1644640	3671.015636124952	0.015636124952
508	1649167	3672.022884099526	0.022884099526
508	1649887	3672.025156133659	0.025156133659
508	1652341	3672.056332159113	0.056332159113
508	1658662	3673.033684161509	0.033684161509
508	1659385	3673.038092135939	0.038092135939
508	1660830	3673.052892080488	0.052892080488
508	1815239	4270.007716037288	0.007716037288
508	1815948	4270.012476074585	0.012476074585
508	1816632	4270.016276101133	0.016276101133
508	1818293	4271.008996043737	0.008996043737
508	1818953	4271.01439608791	0.01439608791
508	1819617	4271.018196124952	0.018196124952
508	1824144	4272.025516099526	0.025516099526
508	1825874	4272.036172159113	0.036172159113
508	1827315	4272.053492133658	0.053492133658
508	1832891	4273.034396135938	0.034396135938
508	1835044	4273.053204161509	0.053204161509
508	1835806	4273.058900080488	0.058900080488
508	1990216	4870.009636037287	0.009636037287
508	1990925	4870.013116074583	0.013116074583
508	1991609	4870.016596101131	0.016596101131
508	1993270	4871.009316043737	0.009316043737
508	1993930	4871.01375608791	0.01375608791
508	1994594	4871.017556124952	0.017556124952
508	1999833	4872.029212099525	0.029212099525
508	2000561	4872.035284159113	0.035284159113
508	2001282	4872.039412133658	0.039412133658
508	2006589	4873.027996135941	0.027996135941
508	2008047	4873.03560416151	0.03560416151
508	2008810	4873.047060080488	0.047060080488
508	2163219	5470.009636037287	0.009636037287
508	2163928	5470.014076074584	0.014076074584
508	2164612	5470.017556101132	0.017556101132
508	2166273	5471.007716043737	0.007716043737
508	2166933	5471.01151608791	0.01151608791
508	2167597	5471.015956124952	0.015956124952
508	2172828	5472.028324099526	0.028324099526
508	2173548	5472.030844133659	0.030844133659
508	2174288	5472.035284159114	0.035284159114
508	2179622	5473.026404080489	0.026404080489
508	2181324	5473.04321213594	0.04321213594
508	2182076	5473.051924161508	0.051924161508
508	2337242	6070.009636037287	0.009636037287
508	2337951	6070.013436074584	0.013436074584
508	2338635	6070.017876101132	0.017876101132
508	2340296	6071.008676043737	0.008676043737
508	2340956	6071.01311608791	0.01311608791
508	2341620	6071.018516124952	0.018516124952
508	2346142	6072.022636099527	0.022636099527
508	2347873	6072.035924159115	0.035924159115
508	2349313	6072.05189213366	0.05189213366
508	2354656	6073.02927616151	0.02927616151
508	2355421	6073.032092080489	0.032092080489
508	2356832	6073.042964135941	0.042964135941
508	2511247	6670.006436037288	0.006436037288
508	2511955	6670.009916074585	0.009916074585
508	2512640	6670.014996101133	0.014996101133
508	2514301	6671.007716043737	0.007716043737
508	2514961	6671.01151608791	0.01151608791
508	2515625	6671.015956124951	0.015956124951
508	2520083	6672.047844099525	0.047844099525
508	2521499	6672.057972133659	0.057972133659
508	2522942	6672.067212159114	0.067212159114
508	2526862	6673.022316080489	0.022316080489
508	2530010	6673.058572161509	0.058572161509
508	2530732	6673.06241213594	0.06241213594
508	2685146	7270.008356037288	0.008356037288
508	2685855	7270.012156074585	0.012156074585
508	2686539	7270.017236101133	0.017236101133
508	2688200	7271.008676043737	0.008676043737
508	2688860	7271.01247608791	0.01247608791
508	2689524	7271.017556124952	0.017556124952
508	2693347	7272.021996099527	0.021996099527
508	2694767	7272.03244413366	0.03244413366
508	2696207	7272.038484159115	0.038484159115
508	2700384	7273.022956080487	0.022956080487
508	2703254	7273.058324161507	0.058324161507
508	2703976	7273.061700135938	0.061700135938
511	1005	1.005	1
511	1146	1.01	0
511	2994	1.016456446436	291
511	6045	1.021456446436	72
511	9207	1.026456446436	64
511	12535	1.031456446436	180
511	14720	1.036456446436	185
511	16775	1.041456446436	70
511	18780	1.046456446436	163
511	21565	1.051456446436	150
511	23139	1.056456446436	78
511	24872	1.061456446436	169
511	26702	1.066456446436	136
511	28765	1.071456446436	130
511	30569	1.076456446436	155
511	32174	1.081456446436	112
511	34137	1.086456446436	162
511	35429	1.091456446436	54
511	36908	1.096456446436	148
511	37981	1.101456446436	66
511	38873	1.106456446436	95
511	40667	1.111456446436	127
511	42039	1.116456446436	167
511	43435	1.121456446436	171
511	44231	1.126456446436	104
511	46131	1.131456446436	183
511	47438	1.136456446436	143
511	48552	1.141456446436	114
511	49226	1.146456446436	75
511	50217	1.151456446436	86
511	51189	1.156456446436	110
511	52689	1.161456446436	192
511	53405	1.166456446436	115
511	54249	1.171456446436	56
511	55104	1.176456446436	117
511	55105	1.181456446436	0
511	56943	1.195333692287	233
511	57799	1.200333692287	118
511	58335	1.205333692287	54
511	58922	1.210333692287	91
511	58926	1.215333692287	0
511	59828	1.222609684017	101
511	60525	1.227609684017	113
511	60526	1.232609684017	0
511	61311	1.242907438874	102
511	62087	1.247907438874	103
511	62088	1.252907438874	0
511	62954	1.303517043479	120
511	62955	1.308517043479	0
511	64172	3.005	0
511	64173	3.01	0
511	65116	4.005	0
511	65117	4.01	0
511	66053	5.005	0
511	66054	5.01	0
511	66651	6.005	0
511	66973	6.01	0
511	68020	7.005	0
511	68021	7.01	0
511	68636	8.005	0
511	68958	8.01	0
511	69700	9.005	0
511	70333	9.01	0
511	71656	10.005	0
511	72363	10.01	0
511	72975	11.005	0
511	74061	11.01	0
511	75061	12.005	0
511	75768	12.01	0
511	76772	13.005	0
511	77476	13.01	0
511	78124	14.005	0
511	79210	14.01	0
511	94312	70.00501	0
511	95021	70.01001	0
511	97173	71.00501	2
511	97834	71.01001	0
511	99897	71.020068055514	207
511	102450	71.025068055514	223
511	105572	71.030068055514	109
511	109264	71.035068055514	28
511	112233	71.040068055514	120
511	115165	71.045068055514	87
511	118180	71.050068055514	48
511	120042	71.055068055514	90
511	122021	71.060068055514	123
511	123718	71.065068055514	197
511	125778	71.070068055514	182
511	127213	71.075068055514	164
511	128826	71.080068055514	124
511	131276	71.085068055514	121
511	132665	71.090068055514	74
511	135728	71.095068055514	224
511	138752	71.100068055514	77
511	141061	71.105068055514	67
511	142985	71.110068055514	138
511	144829	71.115068055514	153
511	146830	71.120068055514	147
511	148687	71.125068055514	121
511	150633	71.130068055514	149
511	152004	71.135068055514	83
511	154199	71.140068055514	102
511	155908	71.145068055514	100
511	157455	71.150068055514	106
511	159499	71.155068055514	151
511	161050	71.160068055514	155
511	163137	71.165068055514	191
511	165178	71.170068055514	120
511	166832	71.175068055514	161
511	167989	71.180068055514	120
511	169589	71.185068055514	172
511	171286	71.190068055514	134
511	173082	71.195068055514	176
511	174551	71.200068055514	149
511	176534	71.205068055514	199
511	178094	71.210068055514	201
511	179726	71.215068055514	188
511	181439	71.220068055514	170
511	183288	71.225068055514	167
511	184586	71.230068055514	91
511	186094	71.235068055514	115
511	186987	71.240068055514	93
511	188663	71.245068055514	162
511	191103	71.250068055514	351
511	192654	71.255068055514	201
511	193495	71.260068055514	112
511	194423	71.265068055514	66
511	195686	71.270068055514	45
511	197496	71.275068055514	160
511	199205	71.280068055514	200
511	201103	71.285068055514	185
511	201759	71.290068055514	37
511	202603	71.295068055514	82
511	203451	71.300068055514	115
511	204282	71.305068055514	86
511	205253	71.310068055514	99
511	206240	71.315068055514	117
511	207097	71.320068055514	0
511	208063	71.328320070211	112
511	209425	71.333320070211	193
511	210279	71.338320070211	117
511	211277	71.343320070211	120
511	211798	71.348320070211	0
511	212424	71.359535644926	72
511	212425	71.364535644926	0
511	213142	72.00501	0
511	213390	72.01001	0
511	214115	72.016566040953	3
511	214943	72.021566040953	116
511	217114	72.026566040953	156
511	219735	72.031566040953	120
511	223027	72.036566040953	83
511	225596	72.041566040953	100
511	228421	72.046566040953	88
511	230725	72.051566040953	104
511	233878	72.056566040953	92
511	235905	72.061566040953	93
511	238958	72.066566040953	85
511	240850	72.071566040953	196
511	242502	72.076566040953	138
511	244671	72.081566040953	150
511	247218	72.086566040953	168
511	249240	72.091566040953	107
511	251151	72.096566040953	142
511	252850	72.101566040953	80
511	255599	72.106566040953	176
511	257406	72.111566040953	114
511	258863	72.116566040953	86
511	260587	72.121566040953	160
511	262717	72.126566040953	97
511	264612	72.131566040953	147
511	266427	72.136566040953	90
511	268324	72.141566040953	173
511	269903	72.146566040953	129
511	271763	72.151566040953	101
511	272884	72.156566040953	71
511	275024	72.161566040953	234
511	276275	72.166566040953	111
511	277846	72.171566040953	40
511	279312	72.176566040953	107
511	280413	72.181566040953	71
511	282087	72.186566040953	126
511	283693	72.191566040953	145
511	285227	72.196566040953	118
511	286306	72.201566040953	48
511	287793	72.206566040953	94
511	289362	72.211566040953	166
511	291074	72.216566040953	133
511	292457	72.221566040953	66
511	293879	72.226566040953	109
511	295361	72.231566040953	126
511	296850	72.236566040953	152
511	297880	72.241566040953	95
511	299305	72.246566040953	133
511	300962	72.251566040953	159
511	302517	72.256566040953	130
511	304176	72.261566040953	151
511	305752	72.266566040953	207
511	306984	72.271566040953	136
511	308563	72.276566040953	208
511	309354	72.281566040953	102
511	310679	72.286566040953	76
511	311722	72.291566040953	104
511	313192	72.296566040953	186
511	314590	72.301566040953	173
511	315684	72.306566040953	74
511	317441	72.311566040953	130
511	318323	72.316566040953	94
511	319911	72.321566040953	209
511	321458	72.326566040953	171
511	322166	72.331566040953	0
511	323246	72.336566040953	76
511	324591	72.341566040953	99
511	324592	72.346566040953	0
511	325418	72.358799344221	112
511	326209	72.363799344221	105
511	326210	72.368799344221	0
511	327621	72.378641630939	176
511	327622	72.383641630939	0
511	328408	72.407333535113	104
511	328409	72.412333535113	0
511	329430	73.00501	0
511	330144	73.01001	3
511	330757	73.01501	116
511	332064	73.02001	116
511	335201	73.02501	67
511	338896	73.03001	99
511	341600	73.03501	112
511	344714	73.04001	83
511	347339	73.04501	81
511	350445	73.05001	77
511	353082	73.05501	37
511	355128	73.06001	100
511	357947	73.06501	193
511	359823	73.07001	114
511	362020	73.07501	121
511	364217	73.08001	70
511	366138	73.08501	61
511	368458	73.09001	75
511	370750	73.09501	93
511	372816	73.10001	144
511	374620	73.10501	65
511	376495	73.11001	109
511	378283	73.11501	91
511	379388	73.12001	48
511	381328	73.12501	151
511	383076	73.13001	138
511	384807	73.13501	146
511	386469	73.14001	158
511	387637	73.14501	75
511	389384	73.15001	96
511	391295	73.15501	149
511	393156	73.16001	130
511	394703	73.16501	178
511	396585	73.17001	80
511	397843	73.17501	103
511	399839	73.18001	181
511	402068	73.18501	177
511	404256	73.19001	164
511	406588	73.19501	106
511	408994	73.20001	151
511	410760	73.20501	97
511	412606	73.21001	72
511	414915	73.21501	177
511	416986	73.22001	36
511	418886	73.22501	127
511	421216	73.23001	72
511	423108	73.23501	202
511	425125	73.24001	104
511	427243	73.24501	157
511	428984	73.25001	98
511	430693	73.25501	155
511	432558	73.26001	92
511	434344	73.26501	78
511	436794	73.27001	192
511	438860	73.27501	117
511	440067	73.28001	73
511	441572	73.28501	104
511	443439	73.29001	167
511	444330	73.29501	64
511	446346	73.30001	197
511	447848	73.30501	87
511	449708	73.31001	30
511	451052	73.31501	156
511	452774	73.32001	169
511	454255	73.32501	118
511	455646	73.33001	129
511	456664	73.33501	0
511	459406	73.340566780761	133
511	460828	73.345566780761	7
511	461818	73.350566780761	79
511	463893	73.355566780761	279
511	464948	73.360566780761	63
511	466770	73.365566780761	227
511	467639	73.370566780761	86
511	469262	73.375566780761	84
511	470207	73.380566780761	41
511	471526	73.385566780761	183
511	472388	73.390566780761	54
511	473449	73.395566780761	70
511	474498	73.400566780761	104
511	475380	73.405566780761	95
511	476838	73.410566780761	185
511	477997	73.415566780761	114
511	478947	73.420566780761	0
511	479658	73.425566780761	0
511	480729	73.430566780761	69
511	481426	73.435566780761	113
511	482292	73.440566780761	52
511	483289	73.445566780761	120
511	483997	73.450566780761	115
511	484693	73.455566780761	0
511	485617	73.460566780761	104
511	486329	73.465566780761	116
511	486330	73.470566780761	0
511	487747	73.493036210336	0
511	488584	73.498036210336	0
511	490064	73.580314105812	122
511	490065	73.585314105812	0
511	490333	74.816576040953	2
511	491098	74.821576040953	116
511	493332	74.826576040953	149
511	496541	74.831576040953	74
511	499083	74.836576040953	92
511	501914	74.841576040953	81
511	504650	74.846576040953	70
511	507715	74.851576040953	50
511	510051	74.856576040953	105
511	511986	74.861576040953	81
511	513947	74.866576040953	152
511	515961	74.871576040953	111
511	517866	74.876576040953	146
511	519599	74.881576040953	111
511	520921	74.886576040953	95
511	522478	74.891576040953	57
511	523845	74.896576040953	43
511	525248	74.901576040953	67
511	526176	74.906576040953	70
511	527454	74.911576040953	174
511	528292	74.916576040953	85
511	529423	74.921576040953	112
511	530892	74.926576040953	118
511	532509	74.931576040953	215
511	533148	74.936576040953	73
511	534562	74.941576040953	5
511	535365	74.946576040953	70
511	536377	74.951576040953	89
511	538061	74.956576040953	195
511	539101	74.961576040953	78
511	540279	74.966576040953	56
511	540980	74.971576040953	87
511	541921	74.976576040953	74
511	542607	74.981576040953	84
511	543586	74.986576040953	115
511	545578	74.991576040953	178
511	545713	74.996576040953	0
511	547216	75.002347642785	78
511	548106	75.007347642785	124
511	548961	75.012347642785	91
511	550342	75.017347642785	196
511	550346	75.022347642785	0
511	551009	75.029864720333	80
511	551010	75.034864720333	0
511	552466	75.067223348455	185
511	552467	75.072223348455	0
511	555282	80.416576040953	117
511	556694	80.421576040953	64
511	558912	80.426576040953	16
511	561633	80.431576040953	33
511	564120	80.436576040953	123
511	568237	80.441576040953	108
511	570729	80.446576040953	37
511	572831	80.451576040953	143
511	574752	80.456576040953	76
511	576837	80.461576040953	79
511	578423	80.466576040953	97
511	580407	80.471576040953	130
511	582291	80.476576040953	167
511	583987	80.481576040953	193
511	585157	80.486576040953	89
511	586860	80.491576040953	170
511	588436	80.496576040953	208
511	589871	80.501576040953	42
511	590998	80.506576040953	117
511	592590	80.511576040953	174
511	593300	80.516576040953	0
511	594978	80.521576040953	195
511	595252	80.526576040953	0
511	596933	80.533281526249	193
511	598452	80.538281526249	194
511	599890	80.543281526249	179
511	601750	80.548281526249	177
511	603074	80.553281526249	115
511	604358	80.558281526249	177
511	605352	80.563281526249	118
511	606769	80.568281526249	204
511	607479	80.573281526249	87
511	608379	80.578281526249	73
511	609145	80.583281526249	62
511	610637	80.588281526249	216
511	611594	80.593281526249	112
511	612798	80.598281526249	162
511	612806	80.603281526249	0
511	614435	80.610877943031	104
511	615883	80.615877943031	182
511	616447	80.620877943031	86
511	616448	80.625877943031	0
511	617228	80.639639095819	102
511	617238	80.644639095819	0
511	618726	80.658279202886	99
511	618861	80.663279202886	0
511	619383	80.669500705803	78
511	619384	80.674500705803	0
511	620220	80.6864735409	114
511	620221	80.6914735409	0
511	772197	670.00501	0
511	772903	670.01001	0
511	774930	671.00501	0
511	775579	671.01001	0
511	778196	672.00501	0
511	778695	672.01001	0
511	779650	672.01501	0
511	780350	672.02001	0
511	781051	672.02501	0
511	781785	672.03001	0
511	782620	672.036804144461	0
511	783214	672.041804144461	0
511	784937	673.00501	0
511	785683	673.01001	0
511	786415	673.01501	0
511	786550	673.02001	0
511	788118	673.026076068003	0
511	788122	673.031076068003	0
511	789527	673.055724109638	0
511	789662	673.060724109638	0
511	790246	673.065924121856	0
511	790943	673.070924121856	0
511	945435	1270.00501	0
511	946147	1270.01001	0
511	948489	1271.00501	0
511	949149	1271.01001	0
511	951075	1272.00501	0
511	952170	1272.01001	0
511	952888	1272.01501	0
511	953585	1272.02001	0
511	954218	1272.02501	0
511	957371	1272.080860112119	0
511	958075	1272.085860112119	0
511	958800	1272.090860112119	0
511	959805	1273.00501	0
511	960548	1273.01001	0
511	961283	1273.01501	0
511	961994	1273.02001	0
511	963190	1273.02501	0
511	964140	1273.03001	0
511	965324	1273.03501	0
511	966314	1273.04001	0
511	1119852	1870.00501	0
511	1120750	1870.01001	0
511	1123095	1871.00501	0
511	1123755	1871.01001	0
511	1126043	1872.00501	0
511	1126779	1872.01001	0
511	1127497	1872.01501	0
511	1128329	1872.02001	0
511	1129622	1872.02501	0
511	1130356	1872.03001	0
511	1131787	1872.041212144461	0
511	1131788	1872.046212144461	0
511	1132793	1873.00501	0
511	1133539	1873.01001	0
511	1134271	1873.01501	0
511	1134272	1873.02001	0
511	1135679	1873.028956068002	0
511	1137107	1873.033956068002	0
511	1138217	1873.038956068002	0
511	1293043	2470.00501	0
511	1293752	2470.01001	0
511	1295905	2471.00501	0
511	1296422	2471.01001	0
511	1299042	2472.00501	0
511	1299778	2472.01001	0
511	1300627	2472.01501	0
511	1301822	2472.02001	0
511	1301823	2472.02501	0
511	1303980	2472.053732112118	0
511	1304684	2472.058732112118	0
511	1305409	2472.063732112118	0
511	1306414	2473.00501	0
511	1307163	2473.01001	0
511	1308026	2473.01501	0
511	1309117	2473.02001	0
511	1309619	2473.02501	0
511	1311024	2473.050924109638	0
511	1311740	2473.055924109638	0
511	1312451	2473.060924109638	0
511	1466943	3070.00501	0
511	1467652	3070.01001	0
511	1469997	3071.00501	0
511	1470660	3071.01001	0
511	1472583	3072.00501	0
511	1473678	3072.01001	0
511	1474399	3072.01501	0
511	1475231	3072.02001	0
511	1476513	3072.02501	0
511	1477358	3072.03001	0
511	1478681	3072.03501	0
511	1479686	3073.00501	0
511	1480432	3073.01001	0
511	1481164	3073.01501	0
511	1481869	3073.02001	0
511	1482572	3073.02501	0
511	1483452	3073.03001	0
511	1484733	3073.035524121856	0
511	1485442	3073.040524121856	0
511	1485446	3073.045524121856	0
511	1639935	3670.00501	0
511	1640263	3670.01001	0
511	1642989	3671.00501	0
511	1643652	3671.01001	0
511	1645934	3672.00501	0
511	1646673	3672.01001	0
511	1647394	3672.01501	0
511	1648549	3672.02001	0
511	1649646	3672.02501	0
511	1652688	3672.05721214446	0
511	1652689	3672.06221214446	0
511	1653471	3673.00501	0
511	1654440	3673.01001	0
511	1655172	3673.01501	0
511	1655880	3673.02001	0
511	1656717	3673.02501	0
511	1658067	3673.03001	0
511	1659042	3673.03501	0
511	1814912	4270.00501	0
511	1815624	4270.01001	0
511	1817966	4271.00501	0
511	1818626	4271.01001	0
511	1820911	4272.00501	0
511	1821647	4272.01001	0
511	1822368	4272.01501	0
511	1823065	4272.02001	0
511	1823904	4272.02501	0
511	1824923	4272.03001	0
511	1825627	4272.036092144459	0
511	1826221	4272.041092144459	0
511	1828677	4273.00501	0
511	1829426	4273.01001	0
511	1830289	4273.01501	0
511	1831325	4273.02001	0
511	1831839	4273.02501	0
511	1832548	4273.031756121854	0
511	1833251	4273.036756121854	0
511	1835424	4273.054084150731	0
511	1835939	4273.059084150731	0
511	1989889	4870.00501	0
511	1990349	4870.01001	0
511	1992754	4871.00501	0
511	1993600	4871.01001	0
511	1995661	4872.00501	0
511	1996627	4872.01001	0
511	1997345	4872.01501	0
511	1998048	4872.02001	0
511	1998881	4872.02501	0
511	2000179	4872.03001	0
511	2000314	4872.03501	0
511	2002644	4873.00501	0
511	2003393	4873.01001	0
511	2004128	4873.01501	0
511	2004965	4873.02001	0
511	2006246	4873.02501	0
511	2007083	4873.03001	0
511	2008424	4873.036164150732	0
511	2008428	4873.041164150732	0
511	2162571	5470.00501	0
511	2163352	5470.01001	0
511	2165946	5471.00501	0
511	2166609	5471.01001	0
511	2168891	5472.00501	0
511	2169627	5472.01001	0
511	2170348	5472.01501	0
511	2171045	5472.02001	0
511	2171882	5472.02501	0
511	2173304	5472.03001	0
511	2174041	5472.03501	0
511	2175639	5473.00501	0
511	2176385	5473.01001	0
511	2177123	5473.01501	0
511	2177960	5473.02001	0
511	2179240	5473.02501	0
511	2180270	5473.03001	0
511	2181457	5473.043452121855	0
511	2181687	5473.048452121855	0
511	2336726	6070.00501	0
511	2337375	6070.01001	0
511	2339969	6071.00501	0
511	2340629	6071.01001	0
511	2342914	6072.00501	0
511	2343650	6072.01001	0
511	2344371	6072.01501	0
511	2345199	6072.02001	0
511	2346787	6072.02501	0
511	2347491	6072.03001	0
511	2347626	6072.03501	0
511	2350675	6073.00501	0
511	2351170	6073.01001	0
511	2352153	6073.01501	0
511	2352861	6073.02001	0
511	2353696	6073.02501	0
511	2355039	6073.03001	0
511	2355778	6073.03501	0
511	2357192	6073.043844121856	0
511	2357193	6073.048844121856	0
511	2510923	6670.00501	0
511	2511956	6670.01001	0
511	2513974	6671.00501	0
511	2514637	6671.01001	0
511	2516692	6672.00501	0
511	2517286	6672.01001	0
511	2517790	6672.01501	0
511	2518834	6672.020366056361	0
511	2519703	6672.025366056361	0
511	2521857	6672.059172112118	0
511	2522561	6672.064172112118	0
511	2523289	6672.069172112118	0
511	2524294	6673.00501	0
511	2525037	6673.01001	0
511	2525769	6673.01501	0
511	2526480	6673.02001	0
511	2527499	6673.02501	0
511	2528907	6673.052844109637	0
511	2529757	6673.057844109637	0
511	2530865	6673.062844109637	0
511	2684819	7270.00501	0
511	2685531	7270.01001	0
511	2687873	7271.00501	0
511	2688536	7271.01001	0
511	2690821	7272.00501	0
511	2691554	7272.01001	0
511	2692275	7272.01501	0
511	2692972	7272.02001	0
511	2693692	7272.02501	0
511	2695128	7272.033324112119	0
511	2695960	7272.038324112119	0
511	2696554	7272.043324112119	0
511	2697559	7273.00501	0
511	2698305	7273.01001	0
511	2699037	7273.01501	0
511	2699742	7273.02001	0
511	2700743	7273.02501	0
511	2701904	7273.052204109635	0
511	2703001	7273.057204109635	0
511	2704109	7273.062204109635	0
512	1005	1.005	0
512	1146	1.01	0
512	2994	1.016456446436	0
512	6045	1.021456446436	0
512	9207	1.026456446436	0
512	12535	1.031456446436	0
512	14720	1.036456446436	0
512	16775	1.041456446436	0
512	18780	1.046456446436	0
512	21565	1.051456446436	0
512	23139	1.056456446436	0
512	24872	1.061456446436	0
512	26702	1.066456446436	0
512	28765	1.071456446436	0
512	30569	1.076456446436	0
512	32174	1.081456446436	0
512	34137	1.086456446436	0
512	35429	1.091456446436	0
512	36908	1.096456446436	0
512	37981	1.101456446436	0
512	38873	1.106456446436	0
512	40667	1.111456446436	0
512	42039	1.116456446436	0
512	43435	1.121456446436	0
512	44231	1.126456446436	0
512	46131	1.131456446436	0
512	47438	1.136456446436	0
512	48552	1.141456446436	0
512	49226	1.146456446436	0
512	50217	1.151456446436	0
512	51189	1.156456446436	0
512	52689	1.161456446436	0
512	53405	1.166456446436	0
512	54249	1.171456446436	0
512	55104	1.176456446436	0
512	55105	1.181456446436	0
512	56943	1.195333692287	0
512	57799	1.200333692287	0
512	58335	1.205333692287	0
512	58922	1.210333692287	0
512	58926	1.215333692287	0
512	59828	1.222609684017	0
512	60525	1.227609684017	0
512	60526	1.232609684017	0
512	61311	1.242907438874	0
512	62087	1.247907438874	0
512	62088	1.252907438874	0
512	62954	1.303517043479	0
512	62955	1.308517043479	0
512	64172	3.005	0
512	64173	3.01	0
512	65116	4.005	0
512	65117	4.01	0
512	66053	5.005	0
512	66054	5.01	0
512	66651	6.005	0
512	66973	6.01	0
512	68020	7.005	0
512	68021	7.01	0
512	68636	8.005	0
512	68958	8.01	0
512	69700	9.005	0
512	70333	9.01	0
512	71656	10.005	0
512	72363	10.01	0
512	72975	11.005	0
512	74061	11.01	0
512	75061	12.005	0
512	75768	12.01	0
512	76772	13.005	0
512	77476	13.01	0
512	78124	14.005	0
512	79210	14.01	0
512	94312	70.00501	0
512	95021	70.01001	0
512	97173	71.00501	0
512	97834	71.01001	0
512	99897	71.020068055514	0
512	102450	71.025068055514	0
512	105572	71.030068055514	0
512	109264	71.035068055514	0
512	112233	71.040068055514	0
512	115165	71.045068055514	0
512	118180	71.050068055514	0
512	120042	71.055068055514	0
512	122021	71.060068055514	0
512	123718	71.065068055514	0
512	125778	71.070068055514	0
512	127213	71.075068055514	0
512	128826	71.080068055514	0
512	131276	71.085068055514	0
512	132665	71.090068055514	0
512	135728	71.095068055514	0
512	138752	71.100068055514	0
512	141061	71.105068055514	0
512	142985	71.110068055514	0
512	144829	71.115068055514	0
512	146830	71.120068055514	0
512	148687	71.125068055514	0
512	150633	71.130068055514	0
512	152004	71.135068055514	0
512	154199	71.140068055514	0
512	155908	71.145068055514	0
512	157455	71.150068055514	0
512	159499	71.155068055514	0
512	161050	71.160068055514	0
512	163137	71.165068055514	0
512	165178	71.170068055514	0
512	166832	71.175068055514	0
512	167989	71.180068055514	0
512	169589	71.185068055514	0
512	171286	71.190068055514	0
512	173082	71.195068055514	0
512	174551	71.200068055514	0
512	176534	71.205068055514	0
512	178094	71.210068055514	0
512	179726	71.215068055514	0
512	181439	71.220068055514	0
512	183288	71.225068055514	0
512	184586	71.230068055514	0
512	186094	71.235068055514	0
512	186987	71.240068055514	0
512	188663	71.245068055514	0
512	191103	71.250068055514	0
512	192654	71.255068055514	0
512	193495	71.260068055514	0
512	194423	71.265068055514	0
512	195686	71.270068055514	0
512	197496	71.275068055514	0