file 272965 1353540070                                          
version 2
run AODVScenario_1f-66-20121121-15:02:13-7356
attr configname AODVScenario_1f
attr datetime 20121121-15:02:13
attr experiment AODVScenario_1f
attr inifile AODV.ini
attr iterationvars $numNodes=116
attr iterationvars2 "$numNodes=116, $repetition=0"
attr measurement $numNodes=116
attr network csma802154net
attr numNodes 116
attr processid 7356
attr repetition 0
attr replication #0
attr resultdir results
attr runnumber 66
attr seedset 66
vector 475  csma802154net.dataCentricNetworkMan  RREQPacketFrequency  ETV
475	8533 40675 921 3170157 1.005 7273.076804147932 1416 0 161 2955 256663
vector 476  csma802154net.dataCentricNetworkMan  RERRPacketFrequency  ETV
476	49208 40622 921 3170157 1.005 7273.076804147932 1416 0 0 0 0
vector 477  csma802154net.dataCentricNetworkMan  DiscoveryPacketFrequency  ETV
477	89830 40622 921 3170157 1.005 7273.076804147932 1416 0 0 0 0
vector 478  csma802154net.dataCentricNetworkMan  RegisterPacketFrequency  ETV
478	130452 40622 921 3170157 1.005 7273.076804147932 1416 0 1 12 12
vector 479  csma802154net.dataCentricNetworkMan  RReplyPacketFrequency  ETV
479	171074 40635 921 3170157 1.005 7273.076804147932 1416 0 129 1787 80735
vector 480  csma802154net.dataCentricNetworkMan  AODVDataPacketFrequency  ETV
480	211709 40640 921 3170157 1.005 7273.076804147932 1416 0 103 1514 65432
vector 487  csma802154net.dataCentricNetworkMan  pendingRegistrationVector  ETV
487	265892 558 52983 1129885 43.5 54.83301676778 23 1 2 34 56
vector 486  csma802154net.dataCentricNetworkMan  pendingRREQVector  ETV
486	264422 1470 52988 1093299 43.50001 54.702335464569 52 0 1 15 15
vector 484  csma802154net.dataCentricNetworkMan  PendingDataPacketsVector  ETV
484	252349 12073 1155293 3169872 70 7273.068484162701 390 0 3 455 871
vector 501  csma802154net.fixhost[13].udpApp  "End-to-end delay"  ETV
501	270000 595 1156776 3148072 70.016316038736 7270.015036038735 13 0.010876038736 0.038004038736 0.207092503564 0.003867968251737
vector 472  csma802154net.dataCentricNetworkMan  dataPacketE2EDelay  ETV
472	2018 6515 1156776 3169872 70.016316038736 7273.068484162701 143 0.010876038736 0.12406013107 5.752826297602 0.29602717619385
vector 499  csma802154net.fixhost[11].udpApp  "End-to-end delay"  ETV
499	268814 595 1157340 3148631 70.022716027092 7270.017524027091 13 0.011196027092 0.022716027092 0.214164352192 0.0036520329321315
vector 490  csma802154net.fixhost[2].udpApp  "End-to-end delay"  ETV
490	266450 595 1159878 3153497 71.016596059096 7271.045564118492 13 0.014996059095 0.045564118492 0.274500887035 0.0066891981547007
vector 492  csma802154net.fixhost[4].udpApp  "End-to-end delay"  ETV
492	267626 593 1162776 3154674 71.042324133273 7271.059884162249 13 0.033044133273 0.104828133272 0.66571779049 0.038808527148318
vector 491  csma802154net.fixhost[3].udpApp  "End-to-end delay"  ETV
491	267045 581 1163362 3152921 71.047980106369 7271.03155610637 13 0.023876106368 0.05900410637 0.496365382801 0.020265719755983
vector 502  csma802154net.fixhost[14].udpApp  "End-to-end delay"  ETV
502	270595 589 1167922 3158672 72.047484076132 7272.028676076132 13 0.025156076131 0.051004076132 0.425756989703 0.014730123530641
vector 506  csma802154net.fixhost[18].udpApp  "End-to-end delay"  ETV
506	271775 595 1169049 3160650 72.053204112168 7272.040364113199 13 0.028316112167 0.077772112167 0.640941459201 0.033672685899954
vector 505  csma802154net.fixhost[17].udpApp  "End-to-end delay"  ETV
505	271184 591 1169620 3159510 72.072052087474 7272.032796088506 13 0.024196087474 0.079660087473 0.577997138182 0.029632597905802
vector 497  csma802154net.fixhost[9].udpApp  "End-to-end delay"  ETV
497	268219 595 1174787 3167793 73.035316107768 7273.037196139807 13 0.034036107768 0.070084139807 0.549341689332 0.0242098655347
vector 507  csma802154net.fixhost[19].udpApp  "End-to-end delay"  ETV
507	272370 595 1177329 3168648 73.064324162808 7273.041924162808 13 0.040964162809 0.098100162808 0.828494116502 0.05730913948211
vector 500  csma802154net.fixhost[12].udpApp  "End-to-end delay"  ETV
500	269409 591 1178554 3169872 73.12406013107 7273.068484162701 13 0.04758013107 0.12406013107 0.8724539886 0.063189317597774
