file 257412 1353539867                                          
version 2
run AODVScenario_1f-47-20121121-14:54:57-5012
attr configname AODVScenario_1f
attr datetime 20121121-14:54:57
attr experiment AODVScenario_1f
attr inifile AODV.ini
attr iterationvars $numNodes=97
attr iterationvars2 "$numNodes=97, $repetition=0"
attr measurement $numNodes=97
attr network csma802154net
attr numNodes 97
attr processid 5012
attr repetition 0
attr replication #0
attr resultdir results
attr runnumber 47
attr seedset 47
vector 399  csma802154net.dataCentricNetworkMan  RREQPacketFrequency  ETV
399	7201 38822 769 2590229 1.005 7273.075212117955 1356 0 115 2406 169028
vector 400  csma802154net.dataCentricNetworkMan  RERRPacketFrequency  ETV
400	46023 38777 769 2590229 1.005 7273.075212117955 1356 0 0 0 0
vector 401  csma802154net.dataCentricNetworkMan  DiscoveryPacketFrequency  ETV
401	84800 38777 769 2590229 1.005 7273.075212117955 1356 0 0 0 0
vector 402  csma802154net.dataCentricNetworkMan  RegisterPacketFrequency  ETV
402	123577 38777 769 2590229 1.005 7273.075212117955 1356 0 1 12 12
vector 403  csma802154net.dataCentricNetworkMan  RReplyPacketFrequency  ETV
403	162354 38791 769 2590229 1.005 7273.075212117955 1356 0 112 1625 66993
vector 404  csma802154net.dataCentricNetworkMan  AODVDataPacketFrequency  ETV
404	201145 38794 769 2590229 1.005 7273.075212117955 1356 0 100 1363 56621
vector 411  csma802154net.dataCentricNetworkMan  pendingRegistrationVector  ETV
411	251588 496 38304 927325 43.5 54.962456519225 21 1 4 67 227
vector 410  csma802154net.dataCentricNetworkMan  pendingRREQVector  ETV
410	250268 1320 38309 876476 43.50001 54.604882569047 47 0 1 16 16
vector 408  csma802154net.dataCentricNetworkMan  PendingDataPacketsVector  ETV
408	239939 10329 930850 2589991 70 7273.069412150671 338 0 3 351 637
vector 426  csma802154net.fixhost[14].udpApp  "End-to-end delay"  ETV
426	256228 594 932160 2573929 70.011196037275 7270.013116037277 13 0.009916037276 0.014396037277 0.164748484596 0.002105164490524
vector 396  csma802154net.dataCentricNetworkMan  dataPacketE2EDelay  ETV
396	1873 5328 932160 2589991 70.011196037275 7273.069412150671 117 0.009916037276 0.190900150668 4.618815781094 0.27304046948176
vector 420  csma802154net.fixhost[8].udpApp  "End-to-end delay"  ETV
420	253258 594 934598 2576167 71.017236055834 7271.016596055834 13 0.014996055833 0.030212055833 0.260116725837 0.0054299858624632
vector 422  csma802154net.fixhost[10].udpApp  "End-to-end delay"  ETV
422	253852 594 935583 2577145 71.053924082017 7271.024804082017 13 0.019756082017 0.053924082017 0.374829066212 0.012035825532089
vector 423  csma802154net.fixhost[11].udpApp  "End-to-end delay"  ETV
423	254446 594 939016 2581029 72.025796084778 7272.027076084778 13 0.023876084774 0.040620084778 0.364181102106 0.010428468100591
vector 424  csma802154net.fixhost[12].udpApp  "End-to-end delay"  ETV
424	255040 594 940452 2581999 72.053844111298 7272.035924111298 13 0.031516111298 0.092420111298 0.563077446866 0.027581592042014
vector 425  csma802154net.fixhost[13].udpApp  "End-to-end delay"  ETV
425	255634 594 941407 2582959 72.060812116034 7272.053204116034 13 0.032404116031 0.061132116033 0.599629508432 0.029476165985791
vector 413  csma802154net.fixhost[1].udpApp  "End-to-end delay"  ETV
413	252084 590 945377 2586227 73.032516086367 7273.026756086367 13 0.024836086366 0.03819614645 0.389997363096 0.011909199833888
vector 417  csma802154net.fixhost[5].udpApp  "End-to-end delay"  ETV
417	252674 584 947671 2588507 73.08509212541 7273.041324125411 13 0.03556412541 0.18297212541 0.810621908879 0.068395315931595
vector 427  csma802154net.fixhost[15].udpApp  "End-to-end delay"  ETV
427	256822 590 948661 2589991 73.095580150669 7273.069412150671 13 0.05692420421 0.190900150668 1.09161417507 0.10567875170281
