file 203492 1353539453                                          
version 2
run AODVScenario_1f-0-20121121-14:43:32-7228
attr configname AODVScenario_1f
attr datetime 20121121-14:43:32
attr experiment AODVScenario_1f
attr inifile AODV.ini
attr iterationvars $numNodes=50
attr iterationvars2 "$numNodes=50, $repetition=0"
attr measurement $numNodes=50
attr network csma802154net
attr numNodes 50
attr processid 7228
attr repetition 0
attr replication #0
attr resultdir results
attr runnumber 0
attr seedset 0
vector 211  csma802154net.dataCentricNetworkMan  RREQPacketFrequency  ETV
211	9106 28855 399 1123690 1.005 7273.055164137501 1047 0 59 861 24503
vector 212  csma802154net.dataCentricNetworkMan  RERRPacketFrequency  ETV
212	37961 28821 399 1123690 1.005 7273.055164137501 1047 0 0 0 0
vector 213  csma802154net.dataCentricNetworkMan  DiscoveryPacketFrequency  ETV
213	66782 28821 399 1123690 1.005 7273.055164137501 1047 0 0 0 0
vector 214  csma802154net.dataCentricNetworkMan  RegisterPacketFrequency  ETV
214	95603 28821 399 1123690 1.005 7273.055164137501 1047 0 1 12 12
vector 215  csma802154net.dataCentricNetworkMan  RReplyPacketFrequency  ETV
215	124424 28833 399 1123690 1.005 7273.055164137501 1047 0 56 878 16688
vector 216  csma802154net.dataCentricNetworkMan  AODVDataPacketFrequency  ETV
216	153257 28836 399 1123690 1.005 7273.055164137501 1047 0 47 980 13116
vector 223  csma802154net.dataCentricNetworkMan  pendingRegistrationVector  ETV
223	195970 576 11689 235432 43.5 54.725938537895 24 0 1 12 12
vector 222  csma802154net.dataCentricNetworkMan  pendingRREQVector  ETV
222	194695 1275 11694 213905 43.50001 54.527613848524 46 0 1 15 15
vector 217  csma802154net.dataCentricNetworkMan  AODVDataLineBreakVector  ETV
217	182093 29 59028 59028 45.713327562139 45.713327562139 1 1 1 1 1
vector 220  csma802154net.dataCentricNetworkMan  PendingDataPacketsVector  ETV
220	182122 12573 246378 1123547 70 7273.04928415386 416 0 3 520 1040
vector 243  csma802154net.fixhost[19].udpApp  "End-to-end delay"  ETV
243	202338 584 247633 1113532 70.024876078344 7270.019756078343 13 0.019756078343 0.053212078344 0.392853018463 0.013331194434747
vector 208  csma802154net.dataCentricNetworkMan  dataPacketE2EDelay  ETV
208	2160 6946 247633 1123547 70.024876078344 7273.04928415386 156 0.015636047873 0.095868100908 6.223503387962 0.29375874938085
vector 244  csma802154net.fixhost[20].udpApp  "End-to-end delay"  ETV
244	202922 570 247887 1113898 70.02928409069 7270.025764090689 13 0.020716090689 0.049124090689 0.414293178962 0.014504089815925
vector 230  csma802154net.fixhost[6].udpApp  "End-to-end delay"  ETV
230	198284 582 248149 1114423 70.032772047873 7270.047492047872 13 0.015636047873 0.047492047872 0.328236622341 0.0091270908348981
vector 233  csma802154net.fixhost[9].udpApp  "End-to-end delay"  ETV
233	198866 576 249861 1116263 71.028396060163 7271.02867608824 13 0.022596088241 0.05982008824 0.411636978659 0.014721213216168
vector 236  csma802154net.fixhost[12].udpApp  "End-to-end delay"  ETV
236	200608 584 250120 1116905 71.030884083058 7271.052924107637 13 0.025764083058 0.089548083057 0.636549251808 0.034749951028751
vector 241  csma802154net.fixhost[17].udpApp  "End-to-end delay"  ETV
241	201764 574 250637 1117423 71.037884106951 7271.07845210695 13 0.026756106949 0.07845210695 0.653909390352 0.036389791279256
vector 234  csma802154net.fixhost[10].udpApp  "End-to-end delay"  ETV
234	199442 584 252088 1118871 72.023916069963 7272.020716069962 13 0.019116069963 0.036316126531 0.320829135787 0.0082377000554876
vector 235  csma802154net.fixhost[11].udpApp  "End-to-end delay"  ETV
235	200026 582 253140 1119906 72.039124109397 7272.032084109394 13 0.032084109394 0.053764163038 0.500925696213 0.019886737971073
vector 240  csma802154net.fixhost[16].udpApp  "End-to-end delay"  ETV
240	201192 572 253401 1120169 72.040972130412 7272.03464413041 13 0.03464413041 0.063012155102 0.576973944252 0.02643351022503
vector 225  csma802154net.fixhost[1].udpApp  "End-to-end delay"  ETV
225	196546 574 255277 1122996 73.029956073371 7273.038764129732 13 0.02323607337 0.072932129729 0.465661122895 0.01982789472541
vector 227  csma802154net.fixhost[3].udpApp  "End-to-end delay"  ETV
227	197704 580 256455 1123547 73.065572128209 7273.04928415386 13 0.03911615386 0.090140128209 0.815589736437 0.053840699912006
vector 226  csma802154net.fixhost[2].udpApp  "End-to-end delay"  ETV
226	197120 584 257017 1122243 73.095868100908 7273.028956100907 13 0.028956100907 0.095868100908 0.706045311793 0.042708875882104
