file 232721 1353539653                                          
version 2
run AODVScenario_1f-28-20121121-14:49:24-4136
attr configname AODVScenario_1f
attr datetime 20121121-14:49:24
attr experiment AODVScenario_1f
attr inifile AODV.ini
attr iterationvars $numNodes=78
attr iterationvars2 "$numNodes=78, $repetition=0"
attr measurement $numNodes=78
attr network csma802154net
attr numNodes 78
attr processid 4136
attr repetition 0
attr replication #0
attr resultdir results
attr runnumber 28
attr seedset 28
vector 323  csma802154net.dataCentricNetworkMan  RREQPacketFrequency  ETV
323	8464 34023 827 1896938 1.005 7273.078804078779 1208 0 99 1339 62579
vector 324  csma802154net.dataCentricNetworkMan  RERRPacketFrequency  ETV
324	42487 33989 827 1896938 1.005 7273.078804078779 1208 0 0 0 0
vector 325  csma802154net.dataCentricNetworkMan  DiscoveryPacketFrequency  ETV
325	76476 33989 827 1896938 1.005 7273.078804078779 1208 0 0 0 0
vector 326  csma802154net.dataCentricNetworkMan  RegisterPacketFrequency  ETV
326	110465 33989 827 1896938 1.005 7273.078804078779 1208 0 1 12 12
vector 327  csma802154net.dataCentricNetworkMan  RReplyPacketFrequency  ETV
327	144454 34001 827 1896938 1.005 7273.078804078779 1208 0 74 1304 35182
vector 328  csma802154net.dataCentricNetworkMan  AODVDataPacketFrequency  ETV
328	178455 34004 827 1896938 1.005 7273.078804078779 1208 0 70 1202 31026
vector 335  csma802154net.dataCentricNetworkMan  pendingRegistrationVector  ETV
335	225716 554 24470 537673 43.5 54.900966283947 23 1 2 34 56
vector 334  csma802154net.dataCentricNetworkMan  pendingRREQVector  ETV
334	224395 1321 24475 521868 43.50001 54.692320872367 47 0 1 13 13
vector 332  csma802154net.dataCentricNetworkMan  PendingDataPacketsVector  ETV
332	212459 11936 540495 1896740 70 7273.069092136114 390 0 3 455 871
vector 359  csma802154net.fixhost[23].udpApp  "End-to-end delay"  ETV
359	231541 590 541571 1881842 70.013436042379 7270.013116042382 13 0.011196042382 0.015676042382 0.17626855096 0.002406745389041
vector 320  csma802154net.dataCentricNetworkMan  dataPacketE2EDelay  ETV
320	2013 6451 541571 1896740 70.013436042379 7273.069092136114 143 0.011196042382 0.094620141399 5.526570447075 0.27200922171807
vector 360  csma802154net.fixhost[24].udpApp  "End-to-end delay"  ETV
360	232131 590 541957 1882228 70.016916073548 7270.016596073552 13 0.015316073552 0.019796073552 0.230788956169 0.0041200386376631
vector 343  csma802154net.fixhost[7].udpApp  "End-to-end delay"  ETV
343	228032 574 544328 1884437 71.022636073519 7271.02231607352 13 0.01943607352 0.050084073519 0.321748955753 0.0087174708775292
vector 344  csma802154net.fixhost[8].udpApp  "End-to-end delay"  ETV
344	228606 590 545116 1885217 71.051964105068 7271.032764105068 13 0.028604105068 0.066220105067 0.512757365885 0.022304341684674
vector 347  csma802154net.fixhost[11].udpApp  "End-to-end delay"  ETV
347	229773 590 546301 1886401 71.067172137335 7271.044524137335 13 0.037484137334 0.088860137335 0.706773785353 0.042210594593247
vector 339  csma802154net.fixhost[3].udpApp  "End-to-end delay"  ETV
339	226270 590 548647 1888747 72.021996067804 7272.020716067804 13 0.019756067804 0.055132067804 0.366508881446 0.011463715701162
vector 340  csma802154net.fixhost[4].udpApp  "End-to-end delay"  ETV
340	226860 586 550216 1890716 72.062412116761 7272.06269214775 13 0.025476091919 0.065932116761 0.550829461805 0.02593846759061
vector 341  csma802154net.fixhost[5].udpApp  "End-to-end delay"  ETV
341	227446 586 550997 1891101 72.071012143487 7272.06969217534 13 0.034964112497 0.081252143487 0.737325781094 0.04450693606654
vector 346  csma802154net.fixhost[10].udpApp  "End-to-end delay"  ETV
346	229196 577 554767 1893891 73.03087611084 7273.026116087469 13 0.023236087469 0.06138011084 0.435685300691 0.015840830218727
vector 350  csma802154net.fixhost[14].udpApp  "End-to-end delay"  ETV
350	230952 589 555270 1896740 73.033716136114 7273.069092136114 13 0.033076136114 0.092380136114 0.678437769472 0.039567462208433
vector 349  csma802154net.fixhost[13].udpApp  "End-to-end delay"  ETV
349	230363 589 557191 1895531 73.088932141398 7273.058644108111 13 0.03400410811 0.094620141399 0.809445638447 0.054932618750446
