version 2
run AODVScenario_1f-29-20121121-14:49:39-4892
attr configname AODVScenario_1f
attr datetime 20121121-14:49:39
attr experiment AODVScenario_1f
attr inifile AODV.ini
attr iterationvars $numNodes=79
attr iterationvars2 "$numNodes=79, $repetition=0"
attr measurement $numNodes=79
attr network csma802154net
attr numNodes 79
attr processid 4892
attr repetition 0
attr replication #0
attr resultdir results
attr runnumber 29
attr seedset 29

vector 327  csma802154net.dataCentricNetworkMan  RREQPacketFrequency  ETV
vector 328  csma802154net.dataCentricNetworkMan  RERRPacketFrequency  ETV
vector 329  csma802154net.dataCentricNetworkMan  DiscoveryPacketFrequency  ETV
vector 330  csma802154net.dataCentricNetworkMan  RegisterPacketFrequency  ETV
vector 331  csma802154net.dataCentricNetworkMan  RReplyPacketFrequency  ETV
vector 332  csma802154net.dataCentricNetworkMan  AODVDataPacketFrequency  ETV
vector 339  csma802154net.dataCentricNetworkMan  pendingRegistrationVector  ETV
vector 338  csma802154net.dataCentricNetworkMan  pendingRREQVector  ETV
vector 333  csma802154net.dataCentricNetworkMan  AODVDataLineBreakVector  ETV
vector 336  csma802154net.dataCentricNetworkMan  PendingDataPacketsVector  ETV
vector 353  csma802154net.fixhost[13].udpApp  "End-to-end delay"  ETV
vector 324  csma802154net.dataCentricNetworkMan  dataPacketE2EDelay  ETV
vector 356  csma802154net.fixhost[16].udpApp  "End-to-end delay"  ETV
vector 358  csma802154net.fixhost[18].udpApp  "End-to-end delay"  ETV
vector 346  csma802154net.fixhost[6].udpApp  "End-to-end delay"  ETV
vector 347  csma802154net.fixhost[7].udpApp  "End-to-end delay"  ETV
vector 342  csma802154net.fixhost[2].udpApp  "End-to-end delay"  ETV
vector 345  csma802154net.fixhost[5].udpApp  "End-to-end delay"  ETV
vector 344  csma802154net.fixhost[4].udpApp  "End-to-end delay"  ETV
vector 361  csma802154net.fixhost[21].udpApp  "End-to-end delay"  ETV
vector 364  csma802154net.fixhost[24].udpApp  "End-to-end delay"  ETV
vector 365  csma802154net.fixhost[25].udpApp  "End-to-end delay"  ETV
324	593133	70.00931602646	0.00931602646
324	593514	70.013116044409	0.013116044409
324	594284	70.020716075744	0.020716075744
324	597058	71.028676080574	0.028676080574
324	598309	71.063764106954	0.063764106954
324	601146	72.028676084378	0.028676084378
324	603151	72.066852137291	0.066852137291
324	603579	72.074004112066	0.074004112066
324	606633	73.031196135384	0.031196135384
324	607928	73.044772149942	0.044772149942
324	608362	73.04729216733	0.04729216733
324	705866	670.007716026461	0.007716026461
324	706247	670.01247604441	0.01247604441
324	707017	670.021676075745	0.021676075745
324	709999	671.027396080574	0.027396080574
324	710853	671.038484106954	0.038484106954
324	713528	672.026116084378	0.026116084378
324	714844	672.034644112066	0.034644112066
324	715932	672.044524137291	0.044524137291
324	718194	673.02263607114	0.02263607114
324	719836	673.034684099928	0.034684099928
324	720703	673.042572136492	0.042572136492
324	818207	1270.008676026461	0.008676026461
324	818588	1270.01311604441	0.01311604441
324	819358	1270.022956075745	0.022956075745
324	822136	1271.022916080574	0.022916080574
324	823389	1271.058572106954	0.058572106954
324	826239	1272.024196084376	0.024196084376
324	828040	1272.063620112065	0.063620112065
324	829276	1272.09046013729	0.09046013729
324	831713	1273.02167607114	0.02167607114
324	832971	1273.055412099927	0.055412099927
324	834229	1273.066500136492	0.066500136492
324	931813	1870.01123602646	0.01123602646
324	932193	1870.015676044409	0.015676044409
324	932963	1870.022956075744	0.022956075744
324	935737	1871.026436080574	0.026436080574
324	936987	1871.055764106954	0.055764106954
324	939824	1872.027716084376	0.027716084376
324	941403	1872.05956413729	0.05956413729
324	942259	1872.065860112065	0.065860112065
324	944682	1873.02263607114	0.02263607114
324	946104	1873.051644099928	0.051644099928
324	947367	1873.079372136492	0.079372136492
324	1044871	2470.007396026461	0.007396026461
324	1045252	2470.01087604441	0.01087604441
324	1046022	2470.020076075745	0.020076075745
324	1048717	2471.025156080574	0.025156080574
324	1050056	2471.058892106954	0.058892106954
324	1053294	2472.0295961165	0.0295961165
324	1054130	2472.03563614457	0.03563614457
324	1055728	2472.059492137291	0.059492137291
324	1058161	2473.02263607114	0.02263607114
324	1059504	2473.050684099928	0.050684099928
324	1060853	2473.086020136491	0.086020136491
324	1158357	3070.007716026461	0.007716026461
324	1158738	3070.01311604441	0.01311604441
324	1159508	3070.020716075745	0.020716075745
324	1162281	3071.024836080574	0.024836080574
324	1163531	3071.053524106953	0.053524106953
324	1167384	3072.032724116499	0.032724116499
324	1169024	3072.062940144569	0.062940144569
324	1169436	3072.06926813729	0.06926813729
324	1172488	3073.026716135382	0.026716135382
324	1173781	3073.038156167329	0.038156167329
324	1174198	3073.040612149941	0.040612149941
324	1271800	3670.009316026461	0.009316026461
324	1272181	3670.01375604441	0.01375604441
324	1272951	3670.022636075745	0.022636075745
324	1276358	3671.027396080572	0.027396080572
324	1276781	3671.035036106952	0.035036106952
324	1279927	3672.024836084377	0.024836084377
324	1281432	3672.062732112065	0.062732112065
324	1282619	3672.09334013729	0.09334013729
324	1285673	3673.029596135384	0.029596135384
324	1286529	3673.036596149942	0.036596149942
324	1287395	3673.04384416733	0.04384416733
324	1384899	4270.00835602646	0.00835602646
324	1385280	4270.012476044408	0.012476044408
324	1386050	4270.020396075743	0.020396075743
324	1389111	4271.031516106952	0.031516106952
324	1389914	4271.041332080573	0.041332080573
324	1392978	4272.026436084377	0.026436084377
324	1394156	4272.036524137288	0.036524137288
324	1395616	4272.069948112062	0.069948112062
324	1398710	4273.027364071138	0.027364071138
324	1399307	4273.031732099925	0.031732099925
324	1400570	4273.06394013649	0.06394013649
324	1498074	4870.008356026461	0.008356026461
324	1498455	4870.01375604441	0.01375604441
324	1499225	4870.022316075745	0.022316075745
324	1502207	4871.028676080574	0.028676080574
324	1503061	4871.038804106954	0.038804106954
324	1506932	4872.027924112065	0.027924112065
324	1507746	4872.03556413729	0.03556413729
324	1508168	4872.046700084378	0.046700084378
324	1511208	4873.033436135384	0.033436135384
324	1512066	4873.041076149942	0.041076149942
324	1512933	4873.05024416733	0.05024416733
324	1610516	5470.00867602646	0.00867602646
324	1610897	5470.013756044409	0.013756044409
324	1611667	5470.024236075743	0.024236075743
324	1614362	5471.025476080574	0.025476080574
324	1615700	5471.058892106953	0.058892106953
324	1618548	5472.040836084378	0.040836084378
324	1620576	5472.059212112065	0.059212112065
324	1621389	5472.068060137291	0.068060137291
324	1624440	5473.030236135384	0.030236135384
324	1625916	5473.04199616733	0.04199616733
324	1626766	5473.067812149942	0.067812149942
324	1724289	6070.00963602646	0.00963602646
324	1724670	6070.013116044409	0.013116044409
324	1725440	6070.021036075744	0.021036075744
324	1728050	6071.025796080574	0.025796080574
324	1729293	6071.035604106954	0.035604106954
324	1732452	6072.0299161165	0.0299161165
324	1733986	6072.03972414457	0.03972414457
324	1734395	6072.042212137291	0.042212137291
324	1736832	6073.02359607114	0.02359607114
324	1738484	6073.059892099928	0.059892099928
324	1739978	6073.090676136492	0.090676136492
324	1837483	6670.01059602646	0.01059602646
324	1837863	6670.014396044409	0.014396044409
324	1838633	6670.023916075742	0.023916075742
324	1841245	6671.026756080574	0.026756080574
324	1842485	6671.038804106953	0.038804106953
324	1845243	6672.025796084377	0.025796084377
324	1847147	6672.064260112064	0.064260112064
324	1847734	6672.069020129849	0.069020129849
324	1850415	6673.02007607114	0.02007607114
324	1852058	6673.03752413205	0.03752413205
324	1852925	6673.046124149438	0.046124149438
324	1950508	7270.00771602646	0.00771602646
324	1950889	7270.012476044408	0.012476044408
324	1951659	7270.021996075743	0.021996075743
324	1955094	7271.027324080574	0.027324080574
324	1955517	7271.032724106954	0.032724106954
324	1958587	7272.026436084378	0.026436084378
324	1959588	7272.032084112066	0.032084112066
324	1961177	7272.06109213729	0.06109213729
324	1964228	7273.029596135381	0.029596135381
324	1965520	7273.040116149939	0.040116149939
324	1965953	7273.042564167327	0.042564167327
327	625	1.005	1
327	720	1.01	0
327	1163	1.016699334649	71
327	2029	1.021699334649	55
327	3462	1.026699334649	86
327	5123	1.031699334649	79
327	6707	1.036699334649	66
327	8397	1.041699334649	43
327	9962	1.046699334649	91
327	11322	1.051699334649	72
327	11825	1.056699334649	30
327	12357	1.061699334649	41
327	13274	1.066699334649	65
327	14369	1.071699334649	71
327	14816	1.076699334649	38
327	15345	1.081699334649	58
327	15772	1.086699334649	34
327	16434	1.091699334649	50
327	16616	1.096699334649	5
327	16620	1.101699334649	0
327	16904	1.109851412038	25
327	16905	1.114851412038	0
327	17636	1.125599814775	63
327	18131	1.130599814775	51
327	18350	1.135599814775	12
327	18680	1.140599814775	33
327	18684	1.145599814775	0
327	19031	1.153299561567	20
327	19270	1.158299561567	33
327	19567	1.163299561567	27
327	19568	1.168299561567	0
327	26445	43.505	1
327	26870	43.51	20
327	28097	43.515	0
327	28862	43.52	0
327	29519	43.525	0
327	30002	43.53	0
327	30373	43.535	0
327	31307	43.541419036345	0
327	31682	43.546419036345	0
327	32552	43.552606057148	0
327	33204	43.557606057148	0
327	33967	43.562606057148	0
327	34367	43.567606057148	0
327	35010	43.572606057148	0
327	35815	43.577606057148	0
327	36471	43.582606057148	0
327	36863	43.587606057148	0
327	37635	43.592606057148	0
327	38111	43.597606057148	0
327	38890	43.602606057148	0
327	39646	43.611643872384	0
327	40190	43.616643872384	0
327	40736	43.621643872384	0
327	41651	43.626643872384	0
327	42308	43.631643872384	0
327	43941	43.644656019593	0
327	44390	43.649656019593	0
327	46292	43.663670879316	0
327	46295	43.668670879316	0
327	47053	43.68078290302	0
327	47536	43.68578290302	0
327	48869	43.694131896251	0
327	49387	43.699131896251	0
327	51251	43.721500402817	0
327	51560	43.726500402817	0
327	52392	43.733287347566	0
327	53053	43.738287347566	0
327	53714	43.743287347566	0
327	54385	43.749635209437	0
327	54753	43.754635209437	0
327	55027	43.759635209437	0
327	55719	43.764635209437	0
327	56092	43.771156847266	0
327	56390	43.776156847266	0
327	56391	43.781156847266	0
327	57655	43.837038908787	0
327	57842	43.842038908787	0
327	58484	43.887118009719	0
327	58579	43.892118009719	0
327	58751	44.505	1
327	59021	44.51	14
327	59736	44.515	0
327	60833	44.52	0
327	61380	44.525	0
327	61955	44.532675991906	0
327	62254	44.537675991906	0
327	63209	44.546835951939	0
327	64029	44.551835951939	0
327	64499	44.556835951939	0
327	65126	44.562306764396	0
327	65229	44.567306764396	0
327	65971	44.57359366233	0
327	66371	44.57859366233	0
327	67381	44.586219114878	0
327	67673	44.591219114878	0
327	68398	44.596925544721	0
327	68770	44.601925544721	0
327	69513	44.608079627206	0
327	70255	44.613079627206	0
327	70817	44.618079627206	0
327	70917	44.623079627206	0
327	71750	44.634229562239	0
327	72381	44.639229562239	0
327	73037	44.644229562239	0
327	73397	44.649229562239	0
327	73752	44.654229562239	0
327	74031	44.659229562239	0
327	74396	44.666297001402	0
327	74397	44.671297001402	0
327	74781	44.682491140909	0
327	75152	44.687491140909	0
327	75153	44.692491140909	0
327	75533	44.731095571442	0
327	75534	44.736095571442	0
327	76281	44.774699182893	0
327	76652	44.779699182893	0
327	76818	45.505	1
327	76913	45.51	0
327	78303	45.515879960388	29
327	79115	45.520879960388	0
327	80330	45.527447824992	0
327	81348	45.532447824992	0
327	81759	45.537447824992	0
327	82616	45.542447824992	0
327	84066	45.552972954758	0
327	84923	45.557972954758	0
327	85851	45.562972954758	0
327	86732	45.56946487926	0
327	87310	45.57446487926	0
327	88206	45.580205853449	0
327	88914	45.585205853449	0
327	89857	45.590205853449	0
327	90585	45.595205853449	0
327	91451	45.601083264305	0
327	92120	45.606083264305	0
327	93149	45.611083264305	0
327	93860	45.616083264305	0
327	94548	45.621083264305	0
327	98747	45.652658061371	0
327	99511	45.657658061371	0
327	100533	45.662658061371	0
327	101010	45.667658061371	0
327	102055	45.676934151042	0
327	103005	45.681934151042	0
327	103668	45.686934151042	0
327	104761	45.694483516886	0
327	105531	45.699483516886	0
327	106416	45.704483516886	0
327	107379	45.711301835392	0
327	107674	45.716301835392	0
327	108542	45.721301835392	0
327	109223	45.726301835392	0
327	110042	45.731301835392	0
327	110775	45.736301835392	0
327	110955	45.741301835392	0
327	112108	45.750807789652	0
327	112870	45.755807789652	0
327	113436	45.760807789652	0
327	113907	45.765807789652	0
327	114315	45.770807789652	0
327	114886	45.775807789652	0
327	115685	45.780807789652	0
327	115968	45.785807789652	0
327	116476	45.790955509196	0
327	117418	45.795955509196	0
327	118218	45.802669572672	0
327	119010	45.807669572672	0
327	119389	45.812669572672	0
327	119861	45.817669572672	0
327	120357	45.832280288703	0
327	121157	45.837280288703	0
327	121559	45.842280288703	0
327	121868	45.847280288703	0
327	122255	45.852280288703	0
327	122256	45.857280288703	0
327	122647	45.866051789142	0
327	122648	45.871051789142	0
327	123429	45.884829999213	0
327	123430	45.889829999213	0
327	123690	46.505	1
327	124663	46.51	41
327	126758	46.515	0
327	127897	46.52	0
327	130236	46.53350865806	0
327	131292	46.53850865806	0
327	132333	46.54350865806	0
327	133218	46.54850865806	0
327	134109	46.55350865806	0
327	135769	46.562437423478	0
327	136812	46.567437423478	0
327	138441	46.575944845583	0
327	139276	46.580944845583	0
327	143095	46.600165248042	0
327	143764	46.605165248042	0
327	144762	46.610165248042	0
327	150047	46.640061185311	0
327	150900	46.645061185311	0
327	151742	46.650061185311	0
327	156479	46.674356491209	0
327	157482	46.679356491209	0
327	158546	46.68700395749	0
327	159606	46.69200395749	0
327	160364	46.69700395749	0
327	162243	46.70545244947	0
327	163399	46.71045244947	0
327	164276	46.71545244947	0
327	165423	46.72045244947	0
327	166189	46.72545244947	0
327	167342	46.731939128116	0
327	168109	46.736939128116	0
327	169746	46.746876536492	0
327	170981	46.751876536492	0
327	172261	46.756876536492	0
327	173121	46.761876536492	0
327	174360	46.766876536492	0
327	175207	46.771876536492	0
327	175920	46.776876536492	0
327	176809	46.783645596625	0
327	177723	46.788645596625	0
327	178827	46.793645596625	0
327	179504	46.798645596625	0
327	180227	46.803645596625	0
327	181161	46.808645596625	0
327	182157	46.813645596625	0
327	182988	46.818645596625	0
327	183924	46.823645596625	0
327	184916	46.828645596625	0
327	185523	46.833645596625	0
327	186002	46.838907438294	0
327	187109	46.843907438294	0
327	188181	46.854273438084	0
327	189026	46.859273438084	0
327	190485	46.868539154518	0
327	191274	46.873539154518	0
327	191874	46.878539154518	0
327	192421	46.884402510607	0
327	192921	46.889402510607	0
327	194730	46.903081925532	0
327	195104	46.908081925532	0
327	195705	46.913081925532	0
327	196267	46.918081925532	0
327	196481	46.923081925532	0
327	198502	46.940672693411	0
327	198911	46.945672693411	0
327	199766	46.950806602092	0
327	200450	46.955806602092	0
327	200918	46.960806602092	0
327	201332	46.970895599588	0
327	201623	46.975895599588	0
327	203367	46.991179454298	0
327	203653	46.996179454298	0
327	204413	47.007060508628	0
327	204599	47.012060508628	0
327	205066	47.025654595217	0
327	205384	47.030654595217	0
327	205573	47.035654595217	0
327	206148	47.047322146437	0
327	206149	47.052322146437	0
327	206151	47.058832131741	0
327	206152	47.063832131741	0
327	206514	47.069752048069	0
327	206518	47.074752048069	0
327	206534	47.505	1
327	206920	47.51	24
327	208196	47.515	0
327	209683	47.52	0
327	210276	47.525	0
327	211626	47.53	0
327	212507	47.535	0
327	213470	47.54	0
327	214170	47.545	0
327	214842	47.55	0
327	215701	47.555	0
327	216075	47.56	0
327	217012	47.566780095744	0
327	218116	47.571780095744	0
327	219263	47.576780095744	0
327	219859	47.581780095744	0
327	220543	47.586881235501	0
327	221138	47.591881235501	0
327	221793	47.596881235501	0
327	224970	47.616771349125	0
327	225923	47.621771349125	0
327	226508	47.626771349125	0
327	227835	47.633795830969	0
327	228021	47.638795830969	0
327	231783	47.660404635544	0
327	232190	47.665404635544	0
327	233201	47.67229936572	0
327	233994	47.67729936572	0
327	235763	47.685388120283	0
327	236331	47.690388120283	0
327	237557	47.696471017563	0
327	238103	47.701471017563	0
327	238873	47.706471017563	0
327	239641	47.711471017563	0
327	240622	47.716471017563	0
327	241412	47.721471017563	0
327	241982	47.726471017563	0
327	242659	47.731471017563	0
327	242861	47.736471017563	0
327	243142	47.741471017563	0
327	243645	47.746526618071	0
327	244296	47.751526618071	0
327	244783	47.756526618071	0
327	245199	47.761526618071	0
327	245594	47.766526618071	0
327	246863	47.781084199441	0
327	247449	47.786084199441	0
327	247736	47.791084199441	0
327	248502	47.79807332113	0
327	248595	47.80307332113	0
327	249397	47.817815650462	0
327	249701	47.822815650462	0
327	250090	47.845471536066	0
327	250488	47.850471536066	0
327	251153	47.857975046968	0
327	251677	47.862975046968	0
327	251766	47.867975046968	0
327	252223	48.505	1
327	252318	48.51	0
327	253690	48.516001658068	28
327	255135	48.521001658068	0
327	256559	48.528470709482	0
327	256973	48.533470709482	0
327	257850	48.538470709482	0
327	258994	48.543470709482	0
327	259700	48.548470709482	0
327	260580	48.553470709482	0
327	261279	48.558470709482	0
327	261918	48.563470709482	0
327	262791	48.568470709482	0
327	263701	48.573470709482	0
327	264778	48.578470709482	0
327	265588	48.583470709482	0
327	266436	48.588470709482	0
327	267805	48.598776200996	0
327	268383	48.603776200996	0
327	268873	48.608776200996	0
327	270002	48.613776200996	0
327	270889	48.618776200996	0
327	271786	48.623776200996	0
327	272577	48.628776200996	0
327	273693	48.636591503111	0
327	274403	48.641591503111	0
327	275416	48.646591503111	0
327	277081	48.655031261769	0
327	278167	48.660031261769	0
327	279068	48.665031261769	0
327	279572	48.670031261769	0
327	280463	48.675031261769	0
327	281107	48.680031261769	0
327	281627	48.686618179562	0
327	282113	48.691618179562	0
327	285009	48.717815530354	0
327	285593	48.722815530354	0
327	286167	48.727815530354	0
327	288788	48.746205994784	0
327	289473	48.751205994784	0
327	290355	48.758015189244	0
327	291063	48.763015189244	0
327	291560	48.768015189244	0
327	292497	48.773765046498	0
327	293256	48.778765046498	0
327	294196	48.783765046498	0
327	294479	48.788765046498	0
327	294763	48.793765046498	0
327	295552	48.799694267118	0
327	296432	48.804694267118	0
327	296855	48.809694267118	0
327	297345	48.814694267118	0
327	297748	48.819694267118	0
327	298149	48.824694267118	0
327	298852	48.8297775859	0
327	298941	48.8347775859	0
327	299637	48.840257570793	0
327	299729	48.845257570793	0
327	300348	48.850737595171	0
327	300525	48.855737595171	0
327	300830	48.861029077696	0
327	300831	48.866029077696	0
327	301017	49.505	1
327	301112	49.51	0
327	302507	49.516704621161	19
327	303605	49.521704621161	0
327	304541	49.526704621161	0
327	305702	49.531704621161	0
327	306420	49.536704621161	0
327	307370	49.541704621161	0
327	308455	49.546704621161	0
327	309254	49.551704621161	0
327	310161	49.556704621161	0
327	310833	49.561704621161	0
327	311562	49.566704621161	0
327	312061	49.571704621161	0
327	312880	49.57756692829	0
327	313626	49.58256692829	0
327	314398	49.58756692829	0
327	314882	49.59256692829	0
327	315275	49.59756692829	0
327	315661	49.60256692829	0
327	315982	49.60756692829	0
327	316489	49.61256692829	0
327	317048	49.61756692829	0
327	317458	49.623027662333	0
327	318170	49.628027662333	0
327	318572	49.633027662333	0
327	319064	49.643577485934	0
327	319541	49.648577485934	0
327	320012	49.653577485934	0
327	320398	49.658577485934	0
327	320791	49.663577485934	0
327	321484	49.668577485934	0
327	321876	49.673577485934	0
327	322283	49.681026955476	0
327	322284	49.686026955476	0
327	322774	49.715009610832	0
327	323473	49.720009610832	0
327	323562	49.725009610832	0
327	323856	49.730188429783	0
327	324254	49.735188429783	0
327	324255	49.740188429783	0
327	324435	50.505	1
327	324445	50.51	0
327	325733	50.5177280839	29
327	326661	50.5227280839	0
327	327661	50.52773233237	0
327	328364	50.53273233237	0
327	329255	50.538094065343	0
327	329784	50.543094065343	0
327	330589	50.548094065343	0
327	331460	50.553094065343	0
327	332236	50.558094065343	0
327	333236	50.564534824017	0
327	333816	50.569534824017	0
327	335306	50.579087870489	0
327	335529	50.584087870489	0
327	336240	50.589087870489	0
327	336817	50.594087870489	0
327	338559	50.602563531316	0
327	339224	50.607563531316	0
327	340070	50.61383359128	0
327	340861	50.61883359128	0
327	342277	50.627442125649	0
327	343091	50.632442125649	0
327	343986	50.637442125649	0
327	345202	50.642442125649	0
327	345608	50.647442125649	0
327	346659	50.654589204454	0
327	347468	50.659589204454	0
327	348177	50.664589204454	0
327	348471	50.669589204454	0
327	349599	50.68055079452	0
327	350477	50.68555079452	0
327	351192	50.69055079452	0
327	351776	50.69555079452	0
327	352258	50.70055079452	0
327	352785	50.70555079452	0
327	353621	50.713014125919	0
327	354100	50.718014125919	0
327	354748	50.723740368699	0
327	355440	50.728740368699	0
327	356243	50.733740368699	0
327	356645	50.738740368699	0
327	357530	50.744616640294	0
327	357935	50.749616640294	0
327	358531	50.754616640294	0
327	358932	50.759616640294	0
327	359344	50.764616640294	0
327	359435	50.769616640294	0
327	359747	50.77531635676	0
327	360331	50.78031635676	0
327	360745	50.78531635676	0
327	361127	50.79031635676	0
327	361737	50.805342176484	0
327	362036	50.810342176484	0
327	362242	50.815342176484	0
327	362971	50.82099996645	0
327	363255	50.82599996645	0
327	363784	50.839818602516	0
327	363785	50.844818602516	0
327	364194	50.880684358249	0
327	364195	50.885684358249	0
327	364396	51.505	1
327	364735	51.51	33
327	365802	51.515	0
327	367055	51.52	0
327	367971	51.525	0
327	369128	51.53	0
327	369631	51.535	0
327	370353	51.54	0
327	371453	51.546806797317	0
327	372365	51.551806797317	0
327	373813	51.558182251158	0
327	374738	51.563182251158	0
327	375846	51.568182251158	0
327	376618	51.574928705562	0
327	377446	51.579928705562	0
327	378262	51.584928705562	0
327	378967	51.589928705562	0
327	380884	51.603058862865	0
327	381680	51.608058862865	0
327	382282	51.613058862865	0
327	383189	51.618058862865	0
327	383774	51.623058862865	0
327	384596	51.628058862865	0
327	385024	51.633058862865	0
327	385687	51.638058862865	0
327	388561	51.656611179123	0
327	389119	51.661611179123	0
327	392014	51.683296599768	0
327	392861	51.688296599768	0
327	393950	51.693296599768	0
327	395021	51.698296599768	0
327	395776	51.703296599768	0
327	396661	51.708296599768	0
327	397152	51.713296599768	0
327	397849	51.718296599768	0
327	399119	51.724412739201	0
327	399709	51.729412739201	0
327	401029	51.740731715214	0
327	401226	51.745731715214	0
327	403014	51.762269218911	0
327	403582	51.767269218911	0
327	404509	51.772627016883	0
327	404985	51.777627016883	0
327	405682	51.783484324442	0
327	406274	51.788484324442	0
327	406642	51.793484324442	0
327	407151	51.798484324442	0
327	407905	51.803484324442	0
327	408567	51.808484324442	0
327	409613	51.814258685848	0
327	410462	51.819258685848	0
327	411804	51.836753175346	0
327	412191	51.841753175346	0
327	413430	51.855035207664	0
327	413831	51.860035207664	0
327	413837	51.865035207664	0
327	414248	51.870035207664	0
327	414460	51.875035207664	0
327	415169	51.88790854946	0
327	415502	51.89290854946	0
327	415887	51.89790854946	0
327	416302	51.922257116986	0
327	416303	51.927257116986	0
327	417127	51.939128602891	0
327	417128	51.944128602891	0
327	417335	52.505	1
327	417345	52.51	0
327	418603	52.518005428415	26
327	419535	52.523005428415	0
327	420960	52.531594286634	0
327	421741	52.536594286634	0
327	422249	52.541594286634	0
327	423093	52.546594286634	0
327	424441	52.556233144484	0
327	425412	52.561233144484	0
327	426114	52.566233144484	0
327	426906	52.571233144484	0
327	427723	52.576233144484	0
327	428623	52.581233144484	0
327	429413	52.586233144484	0
327	430222	52.591233144484	0
327	430991	52.596233144484	0
327	433424	52.615625157994	0
327	434426	52.620625157994	0
327	435668	52.632337182304	0
327	436936	52.637337182304	0
327	437349	52.642337182304	0
327	440238	52.663133193325	0
327	441180	52.668133193325	0
327	443078	52.681251320761	0
327	443865	52.686251320761	0
327	444975	52.692298720868	0
327	445912	52.697298720868	0
327	446729	52.702298720868	0
327	447140	52.707298720868	0
327	447690	52.71340148819	0
327	448850	52.71840148819	0
327	449806	52.72340148819	0
327	450404	52.72840148819	0
327	451025	52.73340148819	0
327	451733	52.73840148819	0
327	452623	52.74529624971	0
327	453416	52.75029624971	0
327	454313	52.75529624971	0
327	455231	52.762821741523	0
327	456236	52.767821741523	0
327	456845	52.772821741523	0
327	457546	52.777821741523	0
327	458768	52.792497156975	0
327	458770	52.797497156975	0
327	460269	52.810310449778	0
327	460778	52.815310449778	0
327	461401	52.830048851908	0
327	461819	52.835048851908	0
327	462226	52.840048851908	0
327	462227	52.845048851908	0
327	463048	52.857956455389	0
327	463448	52.862956455389	0
327	463844	52.870406994904	0
327	463845	52.875406994904	0
327	464264	52.917822386219	0
327	464265	52.922822386219	0
327	464461	53.505	1
327	465041	53.51	43
327	466988	53.515	0
327	468635	53.52	0
327	469853	53.525	0
327	471060	53.53	0
327	471602	53.535	0
327	472796	53.54	0
327	474116	53.546288508025	0
327	475082	53.551288508025	0
327	476011	53.556288508025	0
327	476817	53.561288508025	0
327	478981	53.573623056414	0
327	480008	53.578623056414	0
327	481114	53.583623056414	0
327	482461	53.588623056414	0
327	483503	53.593623056414	0
327	485413	53.602729224122	0
327	486487	53.607729224122	0
327	488220	53.616648217337	0
327	489101	53.621648217337	0
327	490099	53.626648217337	0
327	491358	53.631648217337	0
327	492358	53.636648217337	0
327	493284	53.641648217337	0
327	499277	53.670523459554	0
327	500282	53.675523459554	0
327	501407	53.680523459554	0
327	503616	53.692613580673	0
327	504828	53.697613580673	0
327	505723	53.702613580673	0
327	509386	53.723804901426	0
327	510314	53.728804901426	0
327	511387	53.733804901426	0
327	512218	53.738804901426	0
327	513057	53.743804901426	0
327	513748	53.748804901426	0
327	514747	53.753804901426	0
327	515941	53.758804901426	0
327	517193	53.763804901426	0
327	518974	53.773544446294	0
327	519882	53.778544446294	0
327	520863	53.783544446294	0
327	521976	53.788544446294	0
327	522885	53.793544446294	0
327	523984	53.798544446294	0
327	524788	53.803544446294	0
327	525595	53.808544446294	0
327	526336	53.813544446294	0
327	527522	53.818544446294	0
327	528533	53.823544446294	0
327	529323	53.828544446294	0
327	530202	53.833544446294	0
327	532152	53.844514410009	0
327	532939	53.849514410009	0
327	533496	53.854514410009	0
327	534745	53.863121934333	0
327	535875	53.868121934333	0
327	536963	53.873121934333	0
327	537663	53.878121934333	0
327	539040	53.88395358798	0
327	539966	53.88895358798	0
327	540547	53.89395358798	0
327	541141	53.89895358798	0
327	541776	53.90395358798	0
327	542348	53.90895358798	0
327	542779	53.91395358798	0
327	543375	53.91895358798	0
327	544226	53.92395358798	0
327	544639	53.92895358798	0
327	545053	53.93395358798	0
327	545773	53.95134646003	0
327	545901	53.95634646003	0
327	546321	53.973179150733	0
327	546322	53.978179150733	0
327	546522	54.505	1
327	546962	54.51	25
327	547987	54.515	0
327	549502	54.52	0
327	550632	54.525	0
327	551690	54.53	0
327	552435	54.535	0
327	553441	54.54	0
327	554523	54.545	0
327	555407	54.55	0
327	556741	54.558202766577	0
327	557451	54.563202766577	0
327	558404	54.568202766577	0
327	559163	54.573202766577	0
327	559735	54.578202766577	0
327	561683	54.591174889583	0
327	562333	54.596174889583	0
327	563225	54.601174889583	0
327	563929	54.606174889583	0
327	564548	54.611174889583	0
327	565158	54.616174889583	0
327	565781	54.621174889583	0
327	568018	54.636799140459	0
327	568447	54.641799140459	0
327	569069	54.646799140459	0
327	570219	54.656298831694	0
327	570719	54.661298831694	0
327	571459	54.667786211858	0
327	572340	54.672786211858	0
327	572852	54.679108178953	0
327	573282	54.684108178953	0
327	574754	54.693512814636	0
327	575485	54.698512814636	0
327	576094	54.704696120178	0
327	576945	54.709696120178	0
327	577856	54.714696120178	0
327	578671	54.719696120178	0
327	579209	54.724696120178	0
327	580921	54.738036038329	0
327	581433	54.743036038329	0
327	582271	54.750776904632	0
327	582783	54.755776904632	0
327	583798	54.76126823092	0
327	584638	54.76626823092	0
327	585253	54.77126823092	0
327	585579	54.77626823092	0
327	585999	54.78126823092	0
327	586088	54.78626823092	0
327	586399	54.791450134141	0
327	586689	54.796450134141	0
327	587136	54.801450134141	0
327	587258	54.806450134141	0
327	587674	54.814856096208	0
327	587675	54.819856096208	0
327	588079	54.838572253908	0
327	588080	54.843572253908	0
327	588494	54.882240106182	0
327	588495	54.887240106182	0
327	589346	54.925304127406	0
327	589347	54.930304127406	0
327	592947	70.00501	0
327	593325	70.01001	0
327	593705	70.01501	0
327	594172	70.02001	0
327	594488	70.02501	0
327	594489	70.03001	0
327	595072	71.00501	0
327	595499	71.01001	0
327	595907	71.01501	0
327	596287	71.02001	0
327	596855	71.02501	0
327	597257	71.03001	0
327	597258	71.03501	0
327	598085	71.052204085345	0
327	598086	71.057204085345	0
327	598512	71.068764106954	0
327	598513	71.073764106954	0
327	599101	72.00501	0
327	599523	72.01001	0
327	599941	72.01501	0
327	600336	72.02001	0
327	600931	72.02501	0
327	601339	72.03001	0
327	601340	72.03501	0
327	602169	72.052204086187	0
327	602544	72.057204086187	0
327	602942	72.062204086187	0
327	603238	72.067204086187	0
327	603361	72.072204086187	0
327	603782	72.079004112066	0
327	603783	72.084004112066	0
327	604380	73.00501	0
327	604795	73.01001	0
327	605190	73.01501	0
327	605592	73.02001	0
327	605988	73.02501	0
327	606504	73.03001	0
327	606836	73.03501	0
327	607274	73.04001	0
327	608015	73.04501	0
327	608559	73.05001	0
327	608560	73.05501	0
327	705680	670.00501	0