file 245044 1353539735                                          
version 2
run AODVScenario_1f-35-20121121-14:51:14-2344
attr configname AODVScenario_1f
attr datetime 20121121-14:51:14
attr experiment AODVScenario_1f
attr inifile AODV.ini
attr iterationvars $numNodes=85
attr iterationvars2 "$numNodes=85, $repetition=0"
attr measurement $numNodes=85
attr network csma802154net
attr numNodes 85
attr processid 2344
attr repetition 0
attr replication #0
attr resultdir results
attr runnumber 35
attr seedset 35
vector 351  csma802154net.dataCentricNetworkMan  RREQPacketFrequency  ETV
351	8490 36056 673 2139238 1.005 7273.096580115575 1269 0 90 1572 78922
vector 352  csma802154net.dataCentricNetworkMan  RERRPacketFrequency  ETV
352	44546 36019 673 2139238 1.005 7273.096580115575 1269 0 0 0 0
vector 353  csma802154net.dataCentricNetworkMan  DiscoveryPacketFrequency  ETV
353	80565 36019 673 2139238 1.005 7273.096580115575 1269 0 0 0 0
vector 354  csma802154net.dataCentricNetworkMan  RegisterPacketFrequency  ETV
354	116584 36019 673 2139238 1.005 7273.096580115575 1269 0 1 12 12
vector 355  csma802154net.dataCentricNetworkMan  RReplyPacketFrequency  ETV
355	152603 36031 673 2139238 1.005 7273.096580115575 1269 0 85 1376 46628
vector 356  csma802154net.dataCentricNetworkMan  AODVDataPacketFrequency  ETV
356	188634 36034 673 2139238 1.005 7273.096580115575 1269 0 84 1259 38583
vector 363  csma802154net.dataCentricNetworkMan  pendingRegistrationVector  ETV
363	238013 553 29392 649243 43.5 54.685094402393 23 0 2 24 36
vector 362  csma802154net.dataCentricNetworkMan  pendingRREQVector  ETV
362	236665 1348 29397 634973 43.50001 54.603491562476 48 0 1 15 15
vector 360  csma802154net.dataCentricNetworkMan  PendingDataPacketsVector  ETV
360	224668 11997 664455 2139026 70 7273.089500145188 390 0 3 455 871
vector 370  csma802154net.fixhost[6].udpApp  "End-to-end delay"  ETV
370	239734 592 666077 2123218 70.016596046236 7270.016596046237 13 0.015316046237 0.028292046237 0.248596601076 0.0049027887645016
vector 348  csma802154net.dataCentricNetworkMan  dataPacketE2EDelay  ETV
348	2012 6478 666077 2139026 70.016596046236 7273.089500145188 143 0.014356059484 0.093020117217 5.318688703567 0.24904045341629
vector 371  csma802154net.fixhost[7].udpApp  "End-to-end delay"  ETV
371	240326 592 666511 2123656 70.019084059484 7270.021324059484 13 0.014356059484 0.042124059483 0.267796773285 0.0060771104668729
vector 373  csma802154net.fixhost[9].udpApp  "End-to-end delay"  ETV
373	241510 592 666946 2124090 70.025124080446 7270.026724080446 13 0.018796080446 0.045924080445 0.36153304579 0.010866256775245
vector 367  csma802154net.fixhost[3].udpApp  "End-to-end delay"  ETV
367	238566 576 670134 2126416 71.037532062569 7271.02167606257 13 0.01815606257 0.037532062569 0.313676813405 0.0078543789172044
vector 368  csma802154net.fixhost[4].udpApp  "End-to-end delay"  ETV
368	239142 592 670574 2127711 71.071836098542 7271.035924098543 13 0.030236098543 0.071836098542 0.547621281053 0.025000780775803
vector 379  csma802154net.fixhost[15].udpApp  "End-to-end delay"  ETV
379	242694 576 673331 2130469 72.02455606814 7272.026476068138 13 0.02199606814 0.04450006814 0.356964957027 0.010343145469266
vector 385  csma802154net.fixhost[21].udpApp  "End-to-end delay"  ETV
385	244452 592 675000 2132728 72.039404117217 7272.041324117215 13 0.039404117217 0.093020117217 0.792237584922 0.052136697201253
vector 381  csma802154net.fixhost[17].udpApp  "End-to-end delay"  ETV
381	243270 590 675833 2133154 72.046380082193 7272.06518808219 13 0.025796082192 0.086948082193 0.639541068501 0.036477381754827
vector 374  csma802154net.fixhost[10].udpApp  "End-to-end delay"  ETV
374	242102 592 679911 2137063 73.044596145732 7273.037524119216 13 0.031764119214 0.066572119216 0.577573655863 0.027662029990984
vector 372  csma802154net.fixhost[8].udpApp  "End-to-end delay"  ETV
372	240918 592 680825 2135534 73.073940075839 7273.021996075839 13 0.021356075839 0.073940075839 0.440748985904 0.018397892467648
vector 382  csma802154net.fixhost[18].udpApp  "End-to-end delay"  ETV
382	243860 592 681281 2139026 73.080940089291 7273.089500145188 13 0.035596178117 0.089500145188 0.772397936741 0.049321990832682
