version 2
run AODVScenario_1f-38-20121121-14:52:08-5408
attr configname AODVScenario_1f
attr datetime 20121121-14:52:08
attr experiment AODVScenario_1f
attr inifile AODV.ini
attr iterationvars $numNodes=88
attr iterationvars2 "$numNodes=88, $repetition=0"
attr measurement $numNodes=88
attr network csma802154net
attr numNodes 88
attr processid 5408
attr repetition 0
attr replication #0
attr resultdir results
attr runnumber 38
attr seedset 38

vector 363  csma802154net.dataCentricNetworkMan  RREQPacketFrequency  ETV
vector 364  csma802154net.dataCentricNetworkMan  RERRPacketFrequency  ETV
vector 365  csma802154net.dataCentricNetworkMan  DiscoveryPacketFrequency  ETV
vector 366  csma802154net.dataCentricNetworkMan  RegisterPacketFrequency  ETV
vector 367  csma802154net.dataCentricNetworkMan  RReplyPacketFrequency  ETV
vector 368  csma802154net.dataCentricNetworkMan  AODVDataPacketFrequency  ETV
vector 375  csma802154net.dataCentricNetworkMan  pendingRegistrationVector  ETV
vector 374  csma802154net.dataCentricNetworkMan  pendingRREQVector  ETV
vector 372  csma802154net.dataCentricNetworkMan  PendingDataPacketsVector  ETV
vector 378  csma802154net.fixhost[2].udpApp  "End-to-end delay"  ETV
vector 360  csma802154net.dataCentricNetworkMan  dataPacketE2EDelay  ETV
vector 381  csma802154net.fixhost[5].udpApp  "End-to-end delay"  ETV
vector 383  csma802154net.fixhost[7].udpApp  "End-to-end delay"  ETV
vector 397  csma802154net.fixhost[21].udpApp  "End-to-end delay"  ETV
vector 384  csma802154net.fixhost[8].udpApp  "End-to-end delay"  ETV
vector 385  csma802154net.fixhost[9].udpApp  "End-to-end delay"  ETV
vector 388  csma802154net.fixhost[12].udpApp  "End-to-end delay"  ETV
vector 393  csma802154net.fixhost[17].udpApp  "End-to-end delay"  ETV
vector 380  csma802154net.fixhost[4].udpApp  "End-to-end delay"  ETV
vector 386  csma802154net.fixhost[10].udpApp  "End-to-end delay"  ETV
vector 387  csma802154net.fixhost[11].udpApp  "End-to-end delay"  ETV
360	676368	70.027236029661	0.027236029661
360	676800	70.031996060309	0.031996060309
360	677227	70.036756082188	0.036756082188
360	679783	71.022316081402	0.022316081402
360	680642	71.043404055672	0.043404055672
360	682605	72.016276059802	0.016276059802
360	683461	72.027044091621	0.027044091621
360	684761	72.051604130314	0.051604130314
360	688281	73.031516096619	0.031516096619
360	690074	73.068484156631	0.068484156631
360	690999	73.075164189003	0.075164189003
360	799598	670.009636029661	0.009636029661
360	800031	670.014076060309	0.014076060309
360	800458	670.018836082188	0.018836082188
360	802390	671.015636055672	0.015636055672
360	803270	671.024164081402	0.024164081402
360	805212	672.017236059802	0.017236059802
360	806072	672.025444091621	0.025444091621
360	807372	672.042252130314	0.042252130314
360	810710	673.032476096619	0.032476096619
360	812955	673.05760415663	0.05760415663
360	813423	673.064924185576	0.064924185576
360	922022	1270.009636029661	0.009636029661
360	922455	1270.013436060309	0.013436060309
360	922882	1270.018196082188	0.018196082188
360	925246	1271.02004405567	0.02004405567
360	925698	1271.022884081401	0.022884081401
360	927826	1272.019156059802	0.019156059802
360	928691	1272.048484091621	0.048484091621
360	929991	1272.064012130314	0.064012130314
360	934055	1273.035284096618	0.035284096618
360	935757	1273.06461212363	0.06461212363
360	937114	1273.099948155819	0.099948155819
360	1045801	1870.009636029661	0.009636029661
360	1046234	1870.013436060309	0.013436060309
360	1046661	1870.018516082188	0.018516082188
360	1049021	1871.0187960814	0.0187960814
360	1049457	1871.026052055671	0.026052055671
360	1051420	1872.018196059801	0.018196059801
360	1052706	1872.03404412462	0.03404412462
360	1053580	1872.042284160742	0.042284160742
360	1057867	1873.036956096619	0.036956096619
360	1060688	1873.114668156628	0.114668156628
360	1061617	1873.122556189001	0.122556189001
360	1170216	2470.009636029661	0.009636029661
360	1170649	2470.013436060309	0.013436060309
360	1171076	2470.017236082188	0.017236082188
360	1173433	2471.021996081402	0.021996081402
360	1173868	2471.025164055672	0.025164055672
360	1176017	2472.018836059802	0.018836059802
360	1177306	2472.051004124621	0.051004124621
360	1178180	2472.058924160743	0.058924160743
360	1182700	2473.034324096619	0.034324096619
360	1183732	2473.057644123631	0.057644123631
360	1185087	2473.076340155821	0.076340155821
360	1293686	3070.009316029661	0.009316029661
360	1294119	3070.014076060309	0.014076060309
360	1294546	3070.018516082188	0.018516082188
360	1296658	3071.018516055671	0.018516055671
360	1297543	3071.045924081402	0.045924081402
360	1299485	3072.015636059801	0.015636059801
360	1300340	3072.02480409162	0.02480409162
360	1301640	3072.035924130313	0.035924130313
360	1306901	3073.057612096619	0.057612096619
360	1307369	3073.06141212363	0.06141212363
360	1309184	3073.099380155821	0.099380155821
360	1417871	3670.007076029661	0.007076029661
360	1418304	3670.010556060309	0.010556060309
360	1418731	3670.015956082188	0.015956082188
360	1420663	3671.015636055671	0.015636055671
360	1421544	3671.026084081402	0.026084081402
360	1424342	3672.029956125801	0.029956125801
360	1424773	3672.039196157412	0.039196157412
360	1425646	3672.047116193535	0.047116193535
360	1429183	3673.032156096618	0.032156096618
360	1430640	3673.066852123629	0.066852123629
360	1432101	3673.099948155818	0.099948155818
360	1540700	4270.00739602966	0.00739602966
360	1541133	4270.012156060308	0.012156060308
360	1541560	4270.015956082187	0.015956082187
360	1543492	4271.01627605567	0.01627605567
360	1544372	4271.0238440814	0.0238440814
360	1546317	4272.016276059801	0.016276059801
360	1547172	4272.02416409162	0.02416409162
360	1548468	4272.03496413031	0.03496413031
360	1552672	4273.03719615663	0.03719615663
360	1554057	4273.044492096616	0.044492096616
360	1555196	4273.072460189001	0.072460189001
360	1663795	4870.009636029661	0.009636029661
360	1664228	4870.014396060309	0.014396060309
360	1664655	4870.019156082188	0.019156082188
360	1666587	4871.018196055672	0.018196055672
360	1667468	4871.027044081401	0.027044081401
360	1669410	4872.020116059801	0.020116059801
360	1670456	4872.03024409162	0.03024409162
360	1671760	4872.063692130313	0.063692130313
360	1676624	4873.040012096618	0.040012096618
360	1677092	4873.04505215663	0.04505215663
360	1678484	4873.072924189002	0.072924189002
360	1787171	5470.008356029661	0.008356029661
360	1787604	5470.013756060309	0.013756060309
360	1788031	5470.017876082188	0.017876082188
360	1790387	5471.020436055671	0.020436055671
360	1790839	5471.023276081401	0.023276081401
360	1792780	5472.014356059801	0.014356059801
360	1793636	5472.025124091619	0.025124091619
360	1794936	5472.036244130312	0.036244130312
360	1799369	5473.035564123631	0.035564123631
360	1799829	5473.038020096619	0.038020096619
360	1801186	5473.06560415582	0.06560415582
360	1909785	6070.00835602966	0.00835602966
360	1910218	6070.013116060307	0.013116060307
360	1910645	6070.016916082186	0.016916082186
360	1913093	6071.021676081402	0.021676081402
360	1913635	6071.046604055672	0.046604055672
360	1915601	6072.015636059801	0.015636059801
360	1916457	6072.023204091619	0.023204091619
360	1917757	6072.035212130312	0.035212130312
360	1921277	6073.030556096618	0.030556096618
360	1922839	6073.05764412363	0.05764412363
360	1924195	6073.08882015582	0.08882015582
360	2032794	6670.008676029661	0.008676029661
360	2033227	6670.013756060309	0.013756060309
360	2033654	6670.017236082188	0.017236082188
360	2035768	6671.017556055672	0.017556055672
360	2036653	6671.047204081402	0.047204081402
360	2039451	6672.026756125801	0.026756125801
360	2039882	6672.035996157412	0.035996157412
360	2040755	6672.044556193534	0.044556193534
360	2044187	6673.033116096619	0.033116096619
360	2046274	6673.077372156631	0.077372156631
360	2047208	6673.106060189003	0.106060189003
360	2155895	7270.007716029661	0.007716029661
360	2156328	7270.012476060309	0.012476060309
360	2156755	7270.015956082188	0.015956082188
360	2159311	7271.021036081401	0.021036081401
360	2159751	7271.048452055672	0.048452055672
360	2161714	7272.017876059802	0.017876059802
360	2162570	7272.027684091621	0.027684091621
360	2163869	7272.039124130314	0.039124130314
360	2168206	7273.034604123631	0.034604123631
360	2168776	7273.041292096617	0.041292096617
360	2170132	7273.069300155818	0.069300155818
363	697	1.005	1
363	801	1.01	0
363	1159	1.015855807388	20
363	2159	1.020855807388	72
363	3817	1.025855807388	70
363	5723	1.030855807388	75
363	7716	1.035855807388	87
363	9726	1.040855807388	77
363	11584	1.045855807388	66
363	12941	1.050855807388	66
363	14242	1.055855807388	75
363	15119	1.060855807388	54
363	15998	1.065855807388	41
363	17183	1.070855807388	72
363	17669	1.075855807388	23
363	17965	1.080855807388	42
363	18355	1.085855807388	49
363	19045	1.090855807388	37
363	20063	1.095855807388	67
363	20795	1.100855807388	73
363	21471	1.105855807388	63
363	21898	1.110855807388	30
363	22574	1.115855807388	42
363	23032	1.120855807388	37
363	23270	1.125855807388	31
363	23271	1.130855807388	0
363	23983	1.139276522583	69
363	24297	1.144276522583	28
363	24298	1.149276522583	0
363	25038	1.157612109685	56
363	25612	1.162612109685	63
363	25616	1.167612109685	0
363	25976	1.198743602697	36
363	25977	1.203743602697	0
363	26337	1.244911602697	36
363	26338	1.249911602697	0
363	33989	43.505	1
363	33999	43.51	0
363	35269	43.517678064314	30
363	36618	43.522678064314	0
363	37385	43.527678064314	0
363	38525	43.532678064314	0
363	39223	43.537678064314	0
363	39893	43.542678064314	0
363	41216	43.547678064314	0
363	42755	43.559893972862	0
363	43677	43.564893972862	0
363	44381	43.569893972862	0
363	45409	43.574893972862	0
363	46129	43.579893972862	0
363	47263	43.586339777155	0
363	48125	43.591339777155	0
363	48556	43.596339777155	0
363	49591	43.601354185297	0
363	50508	43.606354185297	0
363	51014	43.611354185297	0
363	51939	43.616407632578	0
363	52577	43.621407632578	0
363	53286	43.626407632578	0
363	54007	43.631407632578	0
363	54741	43.636407632578	0
363	55159	43.641407632578	0
363	56845	43.649010208854	0
363	57669	43.654010208854	0
363	59019	43.665917993295	0
363	59911	43.670917993295	0
363	60535	43.675917993295	0
363	62066	43.687549383281	0
363	62703	43.692549383281	0
363	63418	43.697549383281	0
363	64585	43.702549383281	0
363	64997	43.707549383281	0
363	65606	43.712625070485	0
363	66316	43.717625070485	0
363	67046	43.723208104727	0
363	67957	43.728208104727	0
363	69833	43.741423258037	0
363	70433	43.746423258037	0
363	71062	43.751423258037	0
363	71694	43.756423258037	0
363	72696	43.761423258037	0
363	73428	43.766423258037	0
363	74219	43.771423258037	0
363	75174	43.779285397082	0
363	75601	43.784285397082	0
363	76041	43.789285397082	0
363	76570	43.794285397082	0
363	77319	43.799285397082	0
363	78648	43.808506121183	0
363	78981	43.813506121183	0
363	78987	43.818506121183	0
363	81621	43.842675285052	0
363	81627	43.847675285052	0
363	82468	43.855529661143	0
363	82887	43.860529661143	0
363	82888	43.865529661143	0
363	83386	43.877098370386	0
363	84136	43.882098370386	0
363	84137	43.887098370386	0
363	84424	44.505	1
363	85840	44.51	25
363	87284	44.515	0
363	88109	44.52	0
363	88948	44.525	0
363	89459	44.53	0
363	90415	44.535	0
363	91230	44.54	0
363	92544	44.547728048206	0
363	93438	44.552728048206	0
363	94467	44.557728048206	0
363	95517	44.562728048206	0
363	96170	44.567728048206	0
363	97009	44.572728048206	0
363	97427	44.577728048206	0
363	99236	44.585415128903	0
363	100204	44.590415128903	0
363	101141	44.596397449585	0
363	102233	44.601397449585	0
363	104202	44.614219220926	0
363	104800	44.619219220926	0
363	105729	44.624556353966	0
363	106967	44.629556353966	0
363	107805	44.636887692053	0
363	108685	44.641887692053	0
363	109207	44.646887692053	0
363	109748	44.651887692053	0
363	110968	44.657399949001	0
363	111802	44.662399949001	0
363	112527	44.667399949001	0
363	113154	44.672399949001	0
363	115197	44.685201634476	0
363	115704	44.690201634476	0
363	116728	44.697585647834	0
363	117554	44.702585647834	0
363	118054	44.707585647834	0
363	119797	44.718225649567	0
363	120406	44.723225649567	0
363	121206	44.728225649567	0
363	122041	44.733225649567	0
363	122161	44.738225649567	0
363	123204	44.745927750687	0
363	123605	44.750927750687	0
363	123992	44.755927750687	0
363	125110	44.763885467623	0
363	125516	44.768885467623	0
363	125929	44.773885467623	0
363	126226	44.778885467623	0
363	126329	44.787337189372	0
363	126661	44.792337189372	0
363	126662	44.797337189372	0
363	127487	44.848389191395	0
363	127488	44.853389191395	0
363	128305	44.862834527702	0
363	128403	44.867834527702	0
363	128721	44.873853207965	0
363	128722	44.878853207965	0
363	128912	45.505	1
363	129281	45.51	21
363	130782	45.515	0
363	131615	45.52	0
363	132382	45.525	0
363	133176	45.53	0
363	133901	45.535	0
363	134841	45.541670035769	0
363	135383	45.546670035769	0
363	135989	45.551670035769	0
363	136905	45.556670035769	0
363	137430	45.561670035769	0
363	138239	45.566670035769	0
363	139068	45.571670035769	0
363	139373	45.576670035769	0
363	140394	45.583358035768	0
363	141125	45.588358035768	0
363	141935	45.593358035768	0
363	142562	45.598358035768	0
363	143410	45.604438046639	0
363	144134	45.609438046639	0
363	145176	45.616998065213	0
363	145895	45.621998065213	0
363	146767	45.62824490699	0
363	147498	45.63324490699	0
363	148221	45.63824490699	0
363	149148	45.643565763924	0
363	149990	45.648565763924	0
363	150398	45.653565763924	0
363	151736	45.664220167582	0
363	152165	45.669220167582	0
363	152689	45.674220167582	0
363	153205	45.679220167582	0
363	153942	45.684220167582	0
363	154349	45.689220167582	0
363	155379	45.70133544599	0
363	155481	45.70633544599	0
363	155802	45.711356641261	0
363	156190	45.716356641261	0
363	156591	45.724564176451	0
363	156689	45.729564176451	0
363	157843	45.738053341312	0
363	158336	45.743053341312	0
363	159051	45.748053341312	0
363	159052	45.753053341312	0
363	159893	45.810465116725	0
363	159894	45.815465116725	0
363	160181	46.505	1
363	161893	46.51	36
363	163197	46.515	0
363	164613	46.52	0
363	166057	46.525	0
363	167298	46.53	0
363	168572	46.535	0
363	169621	46.54	0
363	170609	46.545	0
363	171375	46.55	0
363	172629	46.5553256306	0
363	174002	46.5603256306	0
363	175683	46.5653256306	0
363	176223	46.5703256306	0
363	178431	46.581461187274	0
363	179752	46.586461187274	0
363	180302	46.591461187274	0
363	181761	46.596996374805	0
363	182665	46.601996374805	0
363	183617	46.606996374805	0
363	184280	46.611996374805	0
363	186777	46.623172765156	0
363	187413	46.628172765156	0
363	189471	46.63901436165	0
363	190369	46.64401436165	0
363	191230	46.64901436165	0
363	193172	46.658408341817	0
363	194307	46.663408341817	0
363	195070	46.668408341817	0
363	196125	46.675163794882	0
363	197257	46.680163794882	0
363	197992	46.685163794882	0
363	200778	46.703587235234	0
363	201441	46.708587235234	0
363	202351	46.713587235234	0
363	204034	46.723402364907	0
363	204784	46.728402364907	0
363	205908	46.733402364907	0
363	207159	46.738402364907	0
363	208023	46.743402364907	0
363	209089	46.748402364907	0
363	209942	46.753402364907	0
363	210974	46.758402364907	0
363	211711	46.763402364907	0
363	212898	46.772732410817	0
363	213698	46.777732410817	0
363	214344	46.782732410817	0
363	215915	46.793465579383	0
363	216353	46.798465579383	0
363	217424	46.803465579383	0
363	218164	46.808465579383	0
363	219202	46.813465579383	0
363	219621	46.818465579383	0
363	220240	46.823465579383	0
363	220799	46.828465579383	0
363	221996	46.833465579383	0
363	222316	46.838465579383	0
363	223397	46.854236890334	0
363	224341	46.859236890334	0
363	225073	46.865684889724	0
363	225615	46.870684889724	0
363	226606	46.875684889724	0
363	227050	46.880684889724	0
363	227673	46.885684889724	0
363	228214	46.892679863925	0
363	228654	46.897679863925	0
363	229637	46.910885472768	0
363	229638	46.915885472768	0
363	230519	46.943050512838	0
363	230520	46.948050512838	0
363	230704	47.505	1
363	231224	47.51	47
363	232992	47.515	0
363	235193	47.52	0
363	236251	47.525	0
363	237674	47.531051934193	0
363	238706	47.536051934193	0
363	240506	47.541051934193	0
363	242127	47.546051934193	0
363	243488	47.551051934193	0
363	245238	47.556051934193	0
363	246409	47.561051934193	0
363	247657	47.566051934193	0
363	248727	47.571051934193	0
363	250094	47.576051934193	0
363	251465	47.581051934193	0
363	252830	47.586051934193	0
363	254111	47.591051934193	0
363	255189	47.596051934193	0
363	260007	47.618360497423	0
363	261181	47.623360497423	0
363	264997	47.64224679975	0
363	266267	47.64724679975	0
363	272550	47.674750814321	0
363	273629	47.679750814321	0
363	276062	47.691495274862	0
363	277139	47.696495274862	0
363	278433	47.701495274862	0
363	279572	47.706495274862	0
363	280715	47.711495274862	0
363	283246	47.723392000208	0
363	284411	47.728392000208	0
363	285358	47.733392000208	0
363	286613	47.738392000208	0
363	288071	47.743392000208	0
363	289163	47.748392000208	0
363	290219	47.753392000208	0
363	291082	47.758392000208	0
363	291813	47.763392000208	0
363	292645	47.768392000208	0
363	293798	47.773392000208	0
363	294762	47.778392000208	0
363	295874	47.783392000208	0
363	297071	47.788392000208	0
363	299698	47.800449712035	0
363	300467	47.805449712035	0
363	301223	47.810449712035	0
363	302173	47.815449712035	0
363	303286	47.820449712035	0
363	304103	47.825449712035	0
363	305032	47.830808524677	0
363	305811	47.835808524677	0
363	306232	47.840808524677	0
363	307645	47.849144873883	0
363	308480	47.854144873883	0
363	309444	47.859144873883	0
363	310518	47.865695286476	0
363	311176	47.870695286476	0
363	311942	47.875695286476	0
363	312756	47.880695286476	0
363	312767	47.885695286476	0
363	313660	47.89260114448	0
363	314329	47.89760114448	0
363	314994	47.90260114448	0
363	315624	47.90760114448	0
363	315722	47.91260114448	0
363	316087	47.918815494877	0
363	316089	47.923815494877	0
363	316724	47.932627727934	0
363	317133	47.937627727934	0
363	318529	47.960033663319	0
363	319303	47.965033663319	0
363	319304	47.970033663319	0
363	319408	47.980375648007	0
363	319952	47.985375648007	0
363	320615	47.990375648007	0
363	321052	47.995375648007	0
363	321230	48.000375648007	0
363	321237	48.505	1
363	321341	48.51	0
363	322508	48.516678819179	18
363	323170	48.521678819179	0
363	324144	48.526891764946	0
363	324872	48.531891764946	0
363	325302	48.536891764946	0
363	326349	48.541891764946	0
363	327209	48.546891764946	0
363	327967	48.551891764946	0
363	328190	48.556891764946	0
363	328600	48.561891764946	0
363	329736	48.568912785826	0
363	330467	48.573912785826	0
363	331092	48.578912785826	0
363	331408	48.583912785826	0
363	331851	48.590243381803	0
363	332695	48.595243381803	0
363	333226	48.600243381803	0
363	336574	48.632186526891	0
363	336885	48.637186526891	0
363	338266	48.653262701023	0
363	338702	48.658262701023	0
363	339236	48.663262701023	0
363	339744	48.668262701023	0
363	341155	48.687114597947	0
363	341809	48.692114597947	0
363	342879	48.700925734517	0
363	343838	48.705925734517	0
363	344539	48.710925734517	0
363	345474	48.716686660718	0
363	345892	48.721686660718	0
363	346588	48.732838069563	0
363	347130	48.737838069563	0
363	347879	48.742838069563	0
363	348714	48.747838069563	0
363	349232	48.752838069563	0
363	349655	48.757838069563	0
363	349978	48.762838069563	0
363	350494	48.805086654459	0
363	350809	48.810086654459	0
363	350810	48.815086654459	0
363	351033	49.505	1
363	351380	49.51	17
363	352581	49.515	0
363	353589	49.52	0
363	354320	49.525	0
363	354855	49.531058147149	0
363	355069	49.536058147149	0
363	356007	49.541651089418	0
363	356844	49.546651089418	0
363	357405	49.551651089418	0
363	357855	49.556651089418	0
363	358664	49.561651089418	0
363	359180	49.566651089418	0
363	359930	49.572683381671	0
363	360258	49.577683381671	0
363	360928	49.58369234548	0
363	361689	49.58869234548	0
363	362538	49.59369234548	0
363	364741	49.610768466395	0
363	365605	49.615768466395	0
363	366224	49.620768466395	0
363	368150	49.634632487736	0
363	368687	49.639632487736	0
363	370033	49.64773085284	0
363	370866	49.65273085284	0
363	371520	49.65773085284	0
363	372539	49.663008476952	0
363	372961	49.668008476952	0
363	373279	49.674447898033	0
363	373692	49.679447898033	0
363	373794	49.684447898033	0
363	375043	49.697661475353	0
363	375362	49.702661475353	0
363	375787	49.711573495521	0
363	376099	49.716573495521	0
363	376207	49.721573495521	0
363	377166	49.738093526761	0
363	377688	49.743093526761	0
363	378420	49.754616355643	0
363	378528	49.759616355643	0
363	379066	49.768332295126	0
363	379395	49.773332295126	0
363	379396	49.778332295126	0
363	379611	50.505	1
363	380129	50.51	39
363	381864	50.515	0
363	383237	50.52	0
363	384359	50.525	0
363	385249	50.53	0
363	386604	50.535774894687	0
363	387775	50.540774894687	0
363	390279	50.551950187368	0
363	391412	50.556950187368	0
363	392716	50.561950187368	0
363	393898	50.566950187368	0
363	394894	50.571950187368	0
363	396629	50.57919003149	0
363	397634	50.58419003149	0
363	398758	50.591256364893	0
363	400077	50.596256364893	0
363	400945	50.601256364893	0
363	402409	50.606256364893	0
363	404536	50.61901062723	0
363	405697	50.62401062723	0
363	406956	50.62901062723	0
363	411148	50.653267622333	0
363	412267	50.658267622333	0
363	413127	50.663267622333	0
363	414097	50.668267622333	0
363	414972	50.673687254326	0
363	415762	50.678687254326	0
363	416782	50.683687254326	0
363	417779	50.688687254326	0
363	418854	50.693687254326	0
363	420053	50.698687254326	0
363	422330	50.710217223302	0
363	423500	50.715217223302	0
363	424305	50.720217223302	0
363	425498	50.725217223302	0
363	426650	50.730217223302	0
363	427738	50.736546362577	0
363	428582	50.741546362577	0
363	429568	50.746546362577	0
363	430440	50.751546362577	0
363	432761	50.761907683358	0
363	433552	50.766907683358	0
363	434719	50.771907683358	0
363	435995	50.776907683358	0
363	436619	50.781907683358	0
363	437710	50.786907683358	0
363	438470	50.791907683358	0
363	440028	50.800137409137	0
363	440984	50.805137409137	0
363	441730	50.810137409137	0
363	443142	50.817689229309	0
363	444066	50.822689229309	0
363	444412	50.827689229309	0
363	445823	50.836043674858	0
363	446778	50.841043674858	0
363	447340	50.846043674858	0
363	448278	50.851043674858	0
363	448829	50.856043674858	0
363	449799	50.864204227018	0
363	450865	50.869204227018	0
363	452519	50.880451645668	0
363	453488	50.885451645668	0
363	454364	50.891793614156	0
363	455252	50.896793614156	0
363	455928	50.901793614156	0
363	456762	50.907001939852	0
363	457576	50.912001939852	0
363	457772	50.917001939852	0
363	459514	50.933857258622	0
363	459958	50.938857258622	0
363	460867	50.947202855446	0
363	460868	50.952202855446	0
363	461517	51.505	1
363	461621	51.51	0
363	462053	51.515805934999	12
363	462952	51.520805934999	0
363	463688	51.525805934999	0
363	464665	51.530805934999	0
363	465681	51.535805934999	0
363	466247	51.540805934999	0
363	466675	51.545805934999	0
363	467085	51.550805934999	0
363	468763	51.563515430007	0
363	469216	51.568515430007	0
363	469631	51.573515430007	0
363	470863	51.584545083519	0
363	471185	51.589545083519	0
363	472980	51.607113503333	0
363	473084	51.612113503333	0
363	474902	51.627859407761	0
363	475633	51.632859407761	0
363	476069	51.637859407761	0
363	476724	51.642859407761	0
363	477684	51.647859407761	0
363	478830	51.659024140763	0
363	479362	51.664024140763	0
363	479680	51.669024140763	0
363	480618	51.674675842266	0
363	480717	51.679675842266	0
363	481856	51.690720159225	0
363	482298	51.695720159225	0
363	482727	51.700720159225	0
363	483570	51.708219861055	0
363	483571	51.713219861055	0
363	483791	52.505	1
363	483895	52.51	0
363	485182	52.516337301115	33
363	486837	52.521337301115	0
363	488076	52.526337301115	0
363	489373	52.531337301115	0
363	490997	52.536337301115	0
363	492213	52.541337301115	0
363	492905	52.546337301115	0
363	495494	52.559361551316	0
363	496596	52.564361551316	0
363	497822	52.569361551316	0
363	498785	52.574361551316	0
363	500336	52.58126892211	0
363	500996	52.58626892211	0
363	502213	52.59126892211	0
363	503321	52.59626892211	0
363	504889	52.60126892211	0
363	506356	52.60626892211	0
363	507366	52.61126892211	0
363	507919	52.61626892211	0
363	508793	52.62126892211	0
363	509689	52.62626892211	0
363	510998	52.63126892211	0
363	511935	52.63626892211	0
363	512991	52.64126892211	0
363	513893	52.64626892211	0
363	514783	52.65126892211	0
363	515373	52.65626892211	0
363	516202	52.66126892211	0
363	517341	52.671409525829	0
363	518090	52.676409525829	0
363	519070	52.681409525829	0
363	519863	52.686409525829	0
363	521196	52.693144365349	0
363	521529	52.698144365349	0
363	522566	52.705174917349	0
363	523347	52.710174917349	0
363	524367	52.715174917349	0
363	525557	52.720174917349	0
363	525763	52.725174917349	0
363	527416	52.735318948568	0
363	528093	52.740318948568	0
363	528790	52.745318948568	0
363	529568	52.750318948568	0
363	529902	52.755318948568	0
363	530795	52.760318948568	0
363	531478	52.765318948568	0
363	532239	52.770318948568	0
363	533332	52.775318948568	0
363	533884	52.780318948568	0
363	534677	52.785318948568	0
363	535664	52.793674680405	0
363	536460	52.798674680405	0
363	536564	52.803674680405	0
363	539298	52.822810707981	0
363	539744	52.827810707981	0
363	539750	52.832810707981	0
363	541259	52.849245232399	0
363	541700	52.854245232399	0
363	542022	52.859245232399	0
363	542390	52.864245232399	0
363	543057	52.869245232399	0
363	543061	52.874245232399	0
363	543951	52.881652560244	0
363	543952	52.886652560244	0
363	544735	53.505	1
363	545900	53.51	34
363	547480	53.515	0
363	548902	53.52	0
363	550290	53.525	0
363	551637	53.53	0
363	552431	53.535	0
363	553093	53.54	0
363	554510	53.545	0
363	555641	53.55	0
363	556686	53.555	0
363	557896	53.56	0
363	558724	53.565	0
363	559493	53.57	0
363	560663	53.575	0
363	561598	53.58	0
363	562560	53.585	0
363	564268	53.595447633863	0
363	566022	53.600447633863	0
363	567344	53.609564450426	0
363	567989	53.614564450426	0
363	569049	53.620531944107	0
363	569907	53.625531944107	0
363	570689	53.630531944107	0
363	571569	53.635531944107	0
363	572603	53.640531944107	0
363	575082	53.656263376184	0
363	575855	53.661263376184	0
363	577100	53.668022073037	0
363	578353	53.673022073037	0
363	579570	53.678022073037	0
363	580227	53.683022073037	0
363	581164	53.68876228735	0
363	582430	53.69376228735	0
363	583292	53.69876228735	0
363	583732	53.70376228735	0
363	584630	53.70876228735	0
363	585481	53.71376228735	0
363	586305	53.71876228735	0
363	586950	53.72376228735	0
363	587848	53.729253438465	0
363	588631	53.734253438465	0
363	589299	53.739253438465	0
363	589975	53.744253438465	0
363	590883	53.749409170512	0
363	591458	53.754409170512	0
363	592001	53.759409170512	0
363	593551	53.76786157203	0
363	593981	53.77286157203	0
363	595529	53.782060905322	0
363	596540	53.787060905322	0
363	597440	53.792060905322	0
363	598133	53.797060905322	0
363	599229	53.802060905322	0
363	600054	53.807060905322	0
363	600712	53.812060905322	0
363	601614	53.822084475121	0
363	602085	53.827084475121	0
363	602651	53.832084475121	0
363	603524	53.837084475121	0
363	604370	53.842084475121	0
363	605382	53.852732245624	0
363	605487	53.857732245624	0
363	606716	53.866807958482	0
363	607165	53.871807958482	0
363	607609	53.880303358797	0
363	608032	53.885303358797	0
363	608950	53.905228260067	0
363	609599	53.910228260067	0
363	609600	53.915228260067	0
363	610049	53.938693572891	0
363	610381	53.943693572891	0
363	610975	53.948693572891	0
363	610979	53.953693572891	0
363	611500	53.960916333187	0
363	611831	53.965916333187	0
363	612033	54.505	1
363	612040	54.51	0
363	613548	54.518928990214	32
363	614808	54.523928990214	0
363	615886	54.528928990214	0
363	616776	54.533928990214	0
363	617926	54.539459208919	0
363	619135	54.544459208919	0
363	620254	54.549459208919	0
363	621024	54.554459208919	0
363	622243	54.563461118122	0
363	622987	54.568461118122	0
363	624492	54.573461118122	0
363	625520	54.578461118122	0
363	626587	54.583461118122	0
363	628430	54.591637141355	0
363	629008	54.596637141355	0
363	632321	54.622684030451	0
363	633239	54.627684030451	0
363	634010	54.632684030451	0
363	635235	54.638601621558	0
363	636090	54.643601621558	0
363	637144	54.652964019603	0
363	638034	54.657964019603	0
363	639195	54.662964019603	0
363	640017	54.667964019603	0
363	641568	54.677223017724	0
363	642441	54.682223017724	0
363	643014	54.687223017724	0
363	643600	54.692223017724	0
363	644710	54.697223017724	0
363	645600	54.702223017724	0
363	646548	54.707223017724	0
363	647630	54.712223017724	0
363	648718	54.717223017724	0
363	649298	54.722223017724	0
363	650637	54.73055738159	0
363	651608	54.73555738159	0
363	652500	54.74055738159	0
363	653980	54.74555738159	0
363	654737	54.75055738159	0
363	656047	54.75555738159	0
363	656381	54.76055738159	0
363	657357	54.767819650017	0
363	658236	54.772819650017	0
363	659691	54.780301520526	0
363	660817	54.785301520526	0
363	661592	54.790301520526	0
363	662167	54.795301520526	0
363	662608	54.800301520526	0
363	663447	54.806156027752	0
363	664186	54.811156027752	0
363	664983	54.816156027752	0
363	665319	54.821156027752	0
363	665774	54.826876045026	0
363	666122	54.831876045026	0
363	666902	54.836876045026	0
363	667578	54.841876045026	0
363	667779	54.846876045026	0
363	669247	54.869627218594	0
363	669928	54.874627218594	0
363	670382	54.879627218594	0
363	670710	54.884627218594	0
363	671307	54.889627218594	0
363	671742	54.894627218594	0
363	672191	54.899627218594	0
363	672631	54.908980939768	0
363	672632	54.913980939768	0
363	676159	70.00501	0
363	676160	70.01001	0
363	676896	70.032236029661	0
363	677323	70.037236029661	0
363	677439	70.042236029661	0
363	677941	71.00501	0
363	678390	71.01001	0
363	678931	71.01501	0
363	679562	71.02001	0
363	679991	71.02501	0
363	679992	71.03001	0
363	680871	71.048404055672	0
363	680872	71.053404055672	0
363	681510	72.00501	0
363	681956	72.01001	0
363	682388	72.01501	0
363	682816	72.02001	0
363	683242	72.02501	0
363	683900	72.03001	0
363	684547	72.03501	0
363	684548	72.04001	0
363	684963	72.056604130314	0
363	684964	72.061604130314	0
363	685370	73.00501	0
363	685611	73.01001	0
363	686517	73.016236029005	0
363	687057	73.021236029005	0
363	687585	73.026236029005	0
363	688139	73.031236029005	0
363	688506	73.036236029005	0