file 301828 1353540130                                          
version 2
run AODVScenario_1f-71-20121121-15:04:22-7264
attr configname AODVScenario_1f
attr datetime 20121121-15:04:22
attr experiment AODVScenario_1f
attr inifile AODV.ini
attr iterationvars $numNodes=121
attr iterationvars2 "$numNodes=121, $repetition=0"
attr measurement $numNodes=121
attr network csma802154net
attr numNodes 121
attr processid 7264
attr repetition 0
attr replication #0
attr resultdir results
attr runnumber 71
attr seedset 71
vector 495  csma802154net.dataCentricNetworkMan  RREQPacketFrequency  ETV
495	8539 45478 970 3584400 1.005 7273.05001 1562 0 140 3261 281121
vector 496  csma802154net.dataCentricNetworkMan  RERRPacketFrequency  ETV
496	54017 45424 970 3584400 1.005 7273.05001 1562 0 0 0 0
vector 497  csma802154net.dataCentricNetworkMan  DiscoveryPacketFrequency  ETV
497	99441 45424 970 3584400 1.005 7273.05001 1562 0 0 0 0
vector 498  csma802154net.dataCentricNetworkMan  RegisterPacketFrequency  ETV
498	144865 45424 970 3584400 1.005 7273.05001 1562 0 1 12 12
vector 499  csma802154net.dataCentricNetworkMan  RReplyPacketFrequency  ETV
499	190289 45442 970 3584400 1.005 7273.05001 1562 0 142 2087 120523
vector 500  csma802154net.dataCentricNetworkMan  AODVDataPacketFrequency  ETV
500	235731 45443 970 3584400 1.005 7273.05001 1562 0 141 1685 113051
vector 507  csma802154net.dataCentricNetworkMan  pendingRegistrationVector  ETV
507	294743 562 56180 1384130 43.5 54.5 23 0 1 12 12
vector 506  csma802154net.dataCentricNetworkMan  pendingRREQVector  ETV
506	293267 1476 56185 1492380 43.50001 54.915188951633 52 0 1 14 14
vector 504  csma802154net.dataCentricNetworkMan  PendingDataPacketsVector  ETV
504	281174 12093 1502908 3584091 70 7273.042292086948 390 0 3 455 871
vector 513  csma802154net.fixhost[5].udpApp  "End-to-end delay"  ETV
513	295898 595 1504474 3563874 70.013116036568 7270.044332036568 13 0.011516036568 0.044332036568 0.249612475382 0.0062540066875239
vector 492  csma802154net.dataCentricNetworkMan  dataPacketE2EDelay  ETV
492	2016 6523 1504474 3584091 70.013116036568 7273.042292086948 143 0.011196040881 0.167900088781 5.554697269343 0.29635983294708
vector 515  csma802154net.fixhost[7].udpApp  "End-to-end delay"  ETV
515	297088 589 1505061 3561361 70.01688404088 7270.011836040881 13 0.011196040881 0.037364040881 0.24033253145 0.0053847520179057
vector 538  csma802154net.fixhost[30].udpApp  "End-to-end delay"  ETV
538	301233 595 1506210 3562763 70.051044079034 7270.018796079036 13 0.018796079036 0.051044079034 0.418525027461 0.015036223292425
vector 512  csma802154net.fixhost[4].udpApp  "End-to-end delay"  ETV
512	295305 593 1509443 3568309 71.023596070437 7271.036956135981 13 0.020076070437 0.036956135981 0.345149177851 0.0094761898095374
vector 518  csma802154net.fixhost[10].udpApp  "End-to-end delay"  ETV
518	298865 593 1510654 3568940 71.030524105636 7271.04811616114 13 0.028316128368 0.050364105635 0.482813693593 0.018500683435278
vector 519  csma802154net.fixhost[11].udpApp  "End-to-end delay"  ETV
519	299458 595 1511847 3569555 71.037844138299 7271.051596188617 13 0.034676165884 0.062412138299 0.606494036445 0.029208058880526
vector 516  csma802154net.fixhost[8].udpApp  "End-to-end delay"  ETV
516	297677 595 1516519 3573494 72.029636071419 7272.024836071419 13 0.024836071419 0.057332071418 0.425796928437 0.015204313699234
vector 525  csma802154net.fixhost[17].udpApp  "End-to-end delay"  ETV
525	300053 585 1518571 3578316 72.05633208879 7272.11243608879 13 0.033716118048 0.167900088781 0.851581300546 0.073671350904774
vector 527  csma802154net.fixhost[19].udpApp  "End-to-end delay"  ETV
527	300638 595 1519162 3577674 72.060492102976 7272.110196102976 13 0.039796130121 0.160292102969 0.920629472293 0.079059613470403
vector 514  csma802154net.fixhost[6].udpApp  "End-to-end delay"  ETV
514	296493 595 1523380 3584091 73.024196086949 7273.042292086948 13 0.024196086949 0.056940086948 0.427533130326 0.015139810490296
vector 517  csma802154net.fixhost[9].udpApp  "End-to-end delay"  ETV
517	298272 593 1525856 3582821 73.068812115043 7273.031196115043 13 0.026396115044 0.068812115043 0.586229495559 0.029424830259178
