version 2
run AODVScenario_1c-0-20121001-16:38:09-788
attr configname AODVScenario_1c
attr datetime 20121001-16:38:09
attr experiment AODVScenario_1c
attr inifile omnetpp.ini
attr iterationvars ""
attr iterationvars2 $repetition=0
attr measurement ""
attr network csma802154net
attr processid 788
attr repetition 0
attr replication #0
attr resultdir results
attr runnumber 0
attr seedset 0

vector 386  csma802154net.dataCentricNetworkMan  RREQPacketFrequency  ETV
vector 387  csma802154net.dataCentricNetworkMan  DiscoveryPacketFrequency  ETV
vector 388  csma802154net.dataCentricNetworkMan  RegisterPacketFrequency  ETV
vector 389  csma802154net.dataCentricNetworkMan  RReplyPacketFrequency  ETV
vector 390  csma802154net.dataCentricNetworkMan  AODVDataPacketFrequency  ETV
vector 411  csma802154net.fixhost[19].udpApp  "End-to-end delay"  ETV
vector 383  csma802154net.dataCentricNetworkMan  dataPacketE2EDelay  ETV
vector 412  csma802154net.fixhost[20].udpApp  "End-to-end delay"  ETV
383	554831	21.973364570069	1.973364570069
383	562395	22.108297879565	2.108297879565
386	1135	2.005	1
386	1276	2.01	0
386	3070	2.038586446663	235
386	3870	2.043586446663	0
386	6155	2.064975016504	17
386	6366	2.069975016504	0
386	7797	2.090285245596	27
386	7864	2.095285245596	0
386	9330	2.115248384451	68
386	9387	2.120248384451	0
386	10554	2.140683273595	55
386	10733	2.145683273595	0
386	12024	2.165768548394	47
386	12239	2.170768548394	7
386	12287	2.175768548394	0
386	13445	2.190102885036	29
386	13505	2.195102885036	0
386	14567	2.216159090465	58
386	15160	2.221159090465	0
386	16192	2.243551064007	45
386	16516	2.248551064007	0
386	17620	2.272692164704	79
386	17660	2.277692164704	0
386	18835	2.298567426971	59
386	18860	2.303567426971	0
386	19901	2.323240600948	34
386	19925	2.328240600948	0
386	20908	2.349151036858	62
386	20928	2.354151036858	0
386	21826	2.376965023139	40
386	21971	2.381965023139	0
386	22166	2.392487267306	6
386	22595	2.397487267306	45
386	22735	2.402487267306	0
386	23041	2.409649820942	7
386	23042	2.414649820942	0
386	23482	2.430342820586	53
386	23937	2.435342820586	38
386	23938	2.440342820586	0
386	24732	2.480539838677	37
386	24738	2.485539838677	0
386	25294	2.496063427054	55
386	25295	2.501063427054	0
386	25872	2.521197881579	0
386	26010	2.526197881579	0
386	26589	2.544175902458	0
386	26599	2.549175902458	0
386	27571	3.005	1
386	27700	3.01	0
386	29111	3.033647169816	186
386	29755	3.038647169816	0
386	31871	3.059847531121	82
386	32092	3.064847531121	0
386	33675	3.084096049078	58
386	33833	3.089096049078	0
386	35393	3.109394475294	61
386	35449	3.114394475294	0
386	36762	3.134051956404	36
386	36836	3.139051956404	0
386	38130	3.159888535542	69
386	38190	3.164888535542	0
386	39472	3.184528712289	53
386	39533	3.189528712289	0
386	40974	3.209138739443	57
386	41020	3.214138739443	0
386	42217	3.233935933208	32
386	42240	3.238935933208	0
386	43494	3.258765148347	73
386	43543	3.263765148347	0
386	44725	3.283019014356	33
386	44769	3.288019014356	0
386	45824	3.307975482043	5
386	45853	3.312975482043	0
386	47058	3.332353675142	46
386	47088	3.337353675142	0
386	48277	3.358709736788	42
386	48299	3.363709736788	0
386	49115	3.385512076565	28
386	49518	3.390512076565	0
386	50507	3.415595459848	39
386	50515	3.420595459848	0
386	51227	3.443890353909	88
386	51236	3.448890353909	0
386	52008	3.469495226576	0
386	52152	3.474495226576	0
386	52774	3.492463236857	23
386	52775	3.497463236857	0
386	53343	3.51660673173	0
386	53481	3.52160673173	0
386	54806	3.562857257736	0
386	54944	3.567857257736	0
386	56431	4.005	1
386	56438	4.01	0
386	57951	4.040967419817	171
386	58526	4.045967419817	0
386	60595	4.067285429936	74
386	60896	4.072285429936	0
386	62754	4.091574908184	53
386	62899	4.096574908184	0
386	64367	4.116116205456	24
386	64433	4.121116205456	0
386	65892	4.142369569625	72
386	65955	4.147369569625	0
386	67023	4.167173975499	19
386	67317	4.172173975499	0
386	68506	4.192298763604	51
386	68809	4.197298763604	0
386	69714	4.217231091167	48
386	70075	4.222231091167	10
386	70133	4.227231091167	0
386	71345	4.244886463073	72
386	71514	4.249886463073	0
386	72263	4.269377050118	8
386	72625	4.274377050118	30
386	72798	4.279377050118	0
386	73358	4.295278624622	31
386	73696	4.300278624622	33
386	73871	4.305278624622	0
386	74253	4.32208740886	17
386	75020	4.32708740886	63
386	75044	4.33208740886	0
386	76034	4.35489955746	86
386	76067	4.35989955746	0
386	77162	4.379373611089	124
386	77169	4.384373611089	0
386	78143	4.405968236209	71
386	78161	4.410968236209	0
386	78970	4.430276332354	68
386	78975	4.435276332354	0
386	79612	4.454856034426	33
386	79616	4.459856034426	0
386	79851	4.47213503438	17
386	80208	4.47713503438	18
386	80343	4.48213503438	0
386	80925	4.501417007312	0
386	81282	4.506417007312	17
386	81287	4.511417007312	0
386	81869	4.524705018433	0
386	81873	4.529705018433	0
386	82590	4.587394420592	0
386	82728	4.592394420592	0
386	83283	4.611467034851	0
386	83287	4.616467034851	0
386	84474	6.005	1
386	84484	6.01	0
386	85652	6.040412550383	135
386	86135	6.045412550383	0
386	87737	6.06727733494	44
386	87912	6.07227733494	0
386	89713	6.091641371265	32
386	89810	6.096641371265	0
386	91307	6.116275059063	4
386	91351	6.121275059063	0
386	92720	6.141383727853	98
386	92826	6.146383727853	0
386	94134	6.166395730023	39
386	94229	6.171395730023	0
386	95536	6.191277625457	20
386	95559	6.196277625457	0
386	96878	6.216884354766	21
386	96915	6.221884354766	0
386	98272	6.241675808364	74
386	98343	6.246675808364	0
386	99795	6.26953882472	56
386	99893	6.27453882472	0
386	101068	6.294637355328	17
386	101234	6.299637355328	0
386	102265	6.31981255933	68
386	102462	6.32481255933	6
386	102528	6.32981255933	0
386	103665	6.34512463877	57
386	103709	6.35012463877	0
386	104197	6.363736200216	7
386	104697	6.368736200216	30
386	104731	6.373736200216	0
386	105746	6.402780350755	27
386	106032	6.407780350755	0
386	106382	6.41476390647	36
386	106532	6.41976390647	0
386	107118	6.432224057089	20
386	107157	6.437224057089	0
386	107532	6.44559379323	41
386	107672	6.45059379323	0
386	108051	6.459995934882	42
386	108197	6.464995934882	0
386	108868	6.473999235002	0
386	109022	6.478999235002	0
386	109349	6.492038462862	23
386	109486	6.497038462862	0
386	110404	6.534433746588	54
386	110413	6.539433746588	0
386	111209	6.560235464499	102
386	111214	6.565235464499	0
386	111926	6.58609606416	111
386	112061	6.59109606416	0
386	112616	6.618214434015	83
386	112751	6.623214434015	0
386	113351	6.649948577069	0
386	113489	6.654948577069	0
386	114077	6.673236599878	0
386	114081	6.678236599878	0
386	114826	6.721143254295	0
386	114964	6.726143254295	0
386	115543	6.743254620757	0
386	115681	6.748254620757	0
386	116261	6.772671270302	0
386	116265	6.777671270302	0
386	117182	7.005	1
386	117189	7.01	0
386	118501	7.042174772568	143
386	118977	7.047174772568	0
386	120965	7.068709256877	88
386	121219	7.073709256877	0
386	122758	7.093921833538	6
386	122856	7.098921833538	0
386	124110	7.117885108012	30
386	124164	7.122885108012	0
386	125506	7.14514856355	91
386	125681	7.15014856355	0
386	125944	7.156118133705	1
386	126010	7.161118133705	0
386	127196	7.169716059229	51
386	127301	7.174716059229	0
386	128674	7.194457856705	21
386	128744	7.199457856705	0
386	130072	7.219430173039	61
386	130123	7.224430173039	0
386	131319	7.245297710905	48
386	131356	7.250297710905	0
386	132374	7.2700999332	52
386	132595	7.2750999332	14
386	132806	7.2800999332	0
386	133366	7.296525445969	52
386	133784	7.301525445969	20
386	133968	7.306525445969	0
386	134542	7.325374402341	23
386	135042	7.330374402341	15
386	135253	7.335374402341	9
386	135544	7.340374402341	0
386	136213	7.35836965515	26
386	136571	7.36336965515	8
386	136842	7.36836965515	0
386	137414	7.386332795208	34
386	137942	7.391332795208	17
386	137961	7.396332795208	0
386	138862	7.417757272405	47
386	138875	7.422757272405	0
386	139776	7.440142390547	84
386	139919	7.445142390547	0
386	140667	7.469407217458	48
386	140935	7.474407217458	0
386	141448	7.494352841676	35
386	141851	7.499352841676	24
386	141989	7.504352841676	0
386	142518	7.521962433309	16
386	142760	7.526962433309	15
386	143188	7.531962433309	0
386	143778	7.557697891409	55
386	143782	7.562697891409	0
386	144307	7.570957971029	0
386	144442	7.575957971029	0
386	145028	7.598843872225	0
386	145032	7.603843872225	0
386	145883	7.641001666444	0
386	146154	7.646001666444	0
386	147248	7.701891891092	0
386	147389	7.706891891092	0
386	147928	7.732407541522	0
386	147932	7.737407541522	0
386	148653	7.820015555633	0
386	148657	7.825015555633	0
386	149398	7.879783574927	0
386	149402	7.884783574927	0
386	150091	7.940841591344	0
386	150095	7.945841591344	0
386	151023	8.005	1
386	151158	8.01	0
386	152875	8.035635930533	167
386	153414	8.040635930533	0
386	155847	8.062065429928	32
386	156044	8.067065429928	0
386	157792	8.087089091694	23
386	158048	8.092089091694	0
386	159050	8.111877855243	8
386	159350	8.116877855243	36
386	159587	8.121877855243	0
386	160505	8.136701971015	23
386	160598	8.141701971015	0
386	161178	8.146994761694	28
386	161260	8.151994761694	0
386	161703	8.159838462701	0
386	161732	8.164838462701	0
386	162565	8.171328274218	18
386	162828	8.176328274218	0
386	163521	8.184145874131	28
386	163577	8.189145874131	0
386	164147	8.198166290356	14
386	164205	8.203166290356	0
386	164859	8.209445942122	1
386	164900	8.214445942122	0
386	165290	8.223598856094	35
386	165620	8.228598856094	0
386	166148	8.234059118824	4
386	166217	8.239059118824	0
386	166925	8.254263782262	28
386	167777	8.259263782262	54
386	167837	8.264263782262	0
386	168780	8.280243639795	39
386	169197	8.285243639795	0
386	170237	8.30827764553	15
386	170484	8.31327764553	0
386	171512	8.334174101264	32
386	171876	8.339174101264	0
386	172758	8.359472597919	39
386	172911	8.364472597919	0
386	173517	8.384241129888	14
386	173875	8.389241129888	12
386	174083	8.394241129888	0
386	174755	8.40985204437	44
386	174762	8.41485204437	0
386	175097	8.422616351507	0
386	175101	8.427616351507	0
386	175720	8.434462070791	21
386	175858	8.439462070791	0
386	176225	8.444954892654	17
386	176232	8.449954892654	0
386	177176	8.471344942444	19
386	177181	8.476344942444	0
386	178236	8.509630625808	0
386	178246	8.514630625808	0
386	178631	8.534352247109	20
386	178984	8.539352247109	0
386	179948	8.575059656083	0
386	180083	8.580059656083	0
386	180646	8.596462762777	0
386	180792	8.601462762777	0
386	182331	8.682867688251	0
386	182474	8.687867688251	0
386	183815	8.761163704669	0
386	183958	8.766163704669	0
386	185242	8.815782118917	0
386	185246	8.820782118917	0
386	186686	8.887718484884	0
386	186690	8.892718484884	0
386	187367	10.005	1
386	187502	10.01	0
386	188910	10.036689501122	158
386	189399	10.041689501122	0
386	191648	10.06276104221	81
386	191963	10.06776104221	0
386	192148	10.07276104221	0
386	193867	10.087550606661	5
386	193959	10.092550606661	0
386	195611	10.112133944749	7
386	195649	10.117133944749	0
386	196932	10.136597694942	17
386	196945	10.141597694942	0
386	198170	10.162923892811	88
386	198414	10.167923892811	0
386	198482	10.172923892811	0
386	199373	10.187011688163	29
386	199659	10.192011688163	15
386	199703	10.197011688163	0
386	200944	10.21262747907	50
386	201016	10.21762747907	0
386	202203	10.234407552074	31
386	202521	10.239407552074	0
386	203781	10.262061008641	30
386	203946	10.267061008641	0
386	204669	10.286489932142	23
386	205132	10.291489932142	31
386	205186	10.296489932142	0
386	205953	10.310464289164	0
386	206381	10.315464289164	28
386	206425	10.320464289164	0
386	207314	10.342713379662	30
386	207578	10.347713379662	19
386	207731	10.352713379662	0
386	208286	10.366885344249	20
386	208301	10.371885344249	0
386	208890	10.377359291002	55
386	208908	10.382359291002	0
386	210089	10.402749501084	46
386	210098	10.407749501084	0
386	210523	10.421876153498	14
386	211212	10.426876153498	52
386	211218	10.431876153498	0
386	212092	10.473857609613	0
386	212232	10.478857609613	0
386	212745	10.486288848205	0
386	212890	10.491288848205	0
386	213177	10.503093634182	21
386	213183	10.508093634182	0
386	214031	10.516002395757	0
386	214185	10.521002395757	0
386	214755	10.543992671797	0
386	215396	10.548992671797	0
386	216158	10.576632298625	0
386	216162	10.581632298625	0
386	217049	10.61504032172	0
386	217061	10.62004032172	0
386	217550	10.641694213989	40
386	217554	10.646694213989	0
386	218245	10.665648288824	0
386	218253	10.670648288824	0
386	220592	10.779016367909	0
386	220596	10.784016367909	0
386	221105	10.809692422927	0
386	221110	10.814692422927	0
386	222293	10.871881616603	0
386	222297	10.876881616603	0
386	223666	10.92770562935	0
386	223804	10.93270562935	0
386	224756	11.005	1
386	224757	11.01	0
386	226122	11.033139374679	183
386	226738	11.038139374679	0
386	228966	11.059553641426	48
386	229143	11.064553641426	0
386	231080	11.084405687432	28
386	231176	11.089405687432	0
386	232790	11.10949712809	41
386	232893	11.11449712809	0
386	233939	11.13279554429	4
386	234342	11.13779554429	0
386	235369	11.159906798439	29
386	235431	11.164906798439	0
386	235950	11.172019773029	17
386	236004	11.177019773029	0
386	236680	11.185621370836	33
386	236895	11.190621370836	0
386	237674	11.21304227956	33
386	238222	11.21804227956	41
386	238547	11.22304227956	0
386	239239	11.24051000801	39
386	239408	11.24551000801	0
386	240188	11.250728714515	8
386	240235	11.255728714515	0
386	240655	11.26957412303	23
386	241349	11.27457412303	22
386	241658	11.27957412303	0
386	242893	11.302329509916	66
386	243055	11.307329509916	0
386	244025	11.329426908045	45
386	244308	11.334426908045	0
386	244649	11.352508338143	0
386	245308	11.357508338143	21
386	245762	11.362508338143	0
386	247613	11.413417804743	31
386	247762	11.418417804743	0
386	248292	11.443941540815	26
386	248594	11.448941540815	0
386	249425	11.474515744472	0
386	249963	11.479515744472	0
386	250816	11.505425315686	34
386	251071	11.510425315686	0
386	253202	11.584513826226	0
386	253340	11.589513826226	0
386	254095	11.614921839765	0
386	254231	11.619921839765	0
386	255051	11.637249855942	0
386	255193	11.642249855942	0
386	255883	11.661177866694	0
386	255911	11.666177866694	0
386	256820	11.722301077327	0
386	256959	11.727301077327	0
386	257959	11.766465886386	0
386	257975	11.771465886386	0
386	258526	11.77688511342	0
386	258661	11.78188511342	0
386	259188	11.804678304957	0
386	259192	11.809678304957	0
386	259945	11.851916874618	0
386	260080	11.856916874618	0
386	260640	11.873211922496	0
386	260644	11.878211922496	0
386	261320	11.960489932058	0
386	261325	11.965489932058	0
386	261723	12.005	1
386	261724	12.01	0
386	263239	12.032816090708	157
386	263898	12.037816090708	0
386	266089	12.05909887929	43
386	266296	12.06409887929	0
386	268189	12.08388293607	29
386	268332	12.08888293607	0
386	269883	12.109006335297	2
386	269965	12.114006335297	0
386	271066	12.134747657904	9
386	271154	12.139747657904	0
386	272157	12.160169174222	20
386	272223	12.165169174222	0
386	273360	12.183129151898	46
386	273436	12.188129151898	0
386	276227	12.230254827522	20
386	276457	12.235254827522	0
386	277466	12.256133166988	22
386	277719	12.261133166988	0
386	278840	12.280815272416	42
386	278872	12.285815272416	0
386	280203	12.305607790086	71
386	280328	12.310607790086	0
386	281763	12.330184142738	42
386	281807	12.335184142738	0
386	283269	12.356889594842	9
386	283308	12.361889594842	0
386	284375	12.382074499896	22
386	284401	12.387074499896	0
386	285409	12.407203008255	104
386	285424	12.412203008255	0
386	286807	12.447928689585	0
386	287521	12.452928689585	33
386	287533	12.457928689585	0
386	289327	12.502674201225	34
386	289631	12.507674201225	0
386	290410	12.531408931516	0
386	290559	12.536408931516	0
386	291107	12.562152273386	0
386	291112	12.567152273386	0
386	292620	12.605885848629	37
386	292646	12.610885848629	0
386	294727	12.676553548746	58
386	294865	12.681553548746	0
386	295637	12.706812579369	0
386	295783	12.711812579369	0
386	297581	12.784804738765	35
386	297587	12.789804738765	0
386	299121	12.835847978127	0
386	299642	12.840847978127	0
386	300364	12.866408959488	0
386	300507	12.871408959488	0
386	301342	12.896774384045	0
386	301350	12.901774384045	0
386	303826	12.985768965654	0
386	303964	12.990768965654	0
386	305071	13.016412721037	0
386	305079	13.021412721037	0
386	307046	13.094576977794	0
386	307358	13.099576977794	0
386	310457	13.229883280575	0
386	310592	13.234883280575	0
386	312966	13.36266872876	0
386	313181	13.36766872876	0
386	313701	13.385649939058	0
386	313839	13.390649939058	0
386	314714	13.416697953833	0
386	314852	13.421697953833	0
386	315620	13.444156418793	0
386	315621	13.449156418793	0
386	316636	13.4952264374	0
386	317001	13.5002264374	0
386	317383	13.5052264374	0
386	317980	13.523397324069	0
386	318119	13.528397324069	0
386	318658	13.54573534617	0
386	318662	13.55073534617	0
386	320135	13.655260728682	0
386	320152	13.660260728682	0
386	321146	14.005	1
386	321278	14.01	0
386	322795	14.035162182167	172
386	323499	14.040162182167	0
386	323783	14.045162182167	0
386	324027	14.050162182167	0
386	325379	14.060034734079	0
386	325526	14.065034734079	0
386	326624	14.084523655197	3
386	326722	14.089523655197	0
386	327995	14.108068786727	13
386	328045	14.113068786727	0
386	329092	14.13526250217	14
386	329194	14.14026250217	0
386	330847	14.159697709608	76
386	330983	14.164697709608	0
386	332683	14.184548479947	5
386	332728	14.189548479947	0
386	333818	14.209262815572	10
386	333991	14.214262815572	0
386	335157	14.239707130457	16
386	335193	14.244707130457	0
386	336151	14.259388936197	69
386	336466	14.264388936197	0
386	337710	14.289432378813	61
386	337841	14.294432378813	0
386	339198	14.314532368347	62
386	339229	14.319532368347	0
386	340297	14.341488079433	10
386	340334	14.346488079433	0
386	341587	14.36581956559	70
386	341622	14.37081956559	0
386	342601	14.38868486664	26
386	343234	14.39368486664	0
386	344159	14.419093205956	1
386	344168	14.424093205956	0
386	345120	14.443678260557	58
386	345133	14.448678260557	0
386	346118	14.467701456377	21
386	346490	14.472701456377	0
386	347254	14.490804765416	13
386	347787	14.495804765416	0
386	348623	14.520979179196	0
386	348903	14.525979179196	0
386	349613	14.549022386598	0
386	349977	14.554022386598	0
386	350679	14.577235206107	0
386	350697	14.582235206107	0
386	351766	14.598719338977	25
386	352048	14.603719338977	0
386	356424	14.752442739821	0
386	356697	14.757442739821	0
386	358194	14.808801773193	0
386	358204	14.813801773193	0
386	359051	14.841450073808	0
386	359055	14.846450073808	0
386	359946	14.875689792915	0
386	359950	14.880689792915	0
386	360981	14.919655439352	0
386	360985	14.924655439352	0
386	361850	14.955168079156	0
386	361854	14.960168079156	0
386	362645	15.005	1
386	362781	15.01	0
386	364882	15.058676135266	122
386	365286	15.063676135266	0
386	367296	15.085091701178	34
386	367341	15.090091701178	0
386	368440	15.11030896932	5
386	368638	15.11530896932	0
386	369501	15.135531747734	87
386	369740	15.140531747734	0
386	370686	15.16015374758	30
386	370857	15.16515374758	0
386	371620	15.173235819072	33
386	371788	15.178235819072	0
386	372413	15.188473043123	2
386	372662	15.193473043123	0
386	374355	15.223502836746	33
386	374394	15.228502836746	0
386	374973	15.236734381335	31
386	375085	15.241734381335	0
386	375866	15.251741403641	20
386	375919	15.256741403641	0
386	376593	15.262375594038	0
386	376647	15.267375594038	0
386	377519	15.278328834523	41
386	377703	15.283328834523	0
386	378820	15.304723531567	3
386	378852	15.309723531567	0
386	380066	15.327969789271	35
386	380142	15.332969789271	0
386	380181	15.337969789271	0
386	381356	15.353400210459	63
386	381401	15.358400210459	0
386	382627	15.377807499011	21
386	382676	15.382807499011	0
386	383935	15.400698758799	23
386	384185	15.405698758799	0
386	384982	15.42730695016	21
386	385003	15.43230695016	0
386	386199	15.450875027141	0
386	386365	15.455875027141	0
386	387743	15.503064487051	25
386	387938	15.508064487051	0
386	387972	15.513064487051	0
386	387994	15.518064487051	0
386	390102	15.55599009649	0
386	390367	15.56099009649	0
386	391270	15.584979063453	38
386	391302	15.589979063453	0
386	391731	15.601214108766	0
386	392014	15.606214108766	26
386	392165	15.611214108766	0
386	393802	15.650794784642	0
386	394351	15.655794784642	0
386	395578	15.683441395061	0
386	395602	15.688441395061	0
386	397086	15.715682768717	0
386	397229	15.720682768717	0
386	397964	15.745130777404	0
386	397974	15.750130777404	0
386	398818	15.768151760756	34
386	398843	15.773151760756	0
386	400440	15.814911644266	0
386	400717	15.819911644266	0
386	401619	15.842826804992	0
386	401628	15.847826804992	0
386	402316	15.866820880568	0
386	402335	15.871820880568	0
386	402947	15.893019372656	0
386	403307	15.898019372656	0
386	404789	15.955755055733	0
386	405271	15.960755055733	0
386	405457	15.965755055733	0
386	406131	15.986727612621	0
386	406399	15.991727612621	0
386	406831	16.005	1
386	406846	16.01	0
386	407658	16.045754061652	0
386	408324	16.050754061652	0
386	408560	16.055754061652	0
386	409734	16.103602044399	0
386	410005	16.108602044399	0
386	411185	16.156770963587	0
386	411323	16.161770963587	0
386	413103	16.22246678241	0
386	413238	16.22746678241	0
386	414670	16.26913097149	0
386	414675	16.27413097149	0
386	416399	16.339234824766	0
386	416427	16.344234824766	0
386	418068	16.406565341495	0
386	418231	16.411565341495	0
386	418770	16.436333368793	0
386	418920	16.441333368793	0
386	419524	16.46738139678	0
386	419528	16.47238139678	0
386	420292	16.523085357666	0
386	420296	16.528085357666	0
386	420781	16.725568491042	0
386	420782	16.730568491042	0
386	421985	17.046029783324	0
386	421998	17.051029783324	0
386	424755	17.823890767758	0
386	424756	17.828890767758	0
386	425887	18.037236998522	0
386	426027	18.042236998522	0
386	430626	18.335134799078	0
386	430627	18.340134799078	0
386	431271	18.80501	1
386	431403	18.81001	0
386	433983	18.835039468567	206
386	434684	18.840039468567	0
386	437824	18.861581723396	4
386	437947	18.866581723396	0
386	440082	18.887230770605	3
386	440136	18.892230770605	0
386	441623	18.912390595234	14
386	441704	18.917390595234	0
386	442918	18.936230817891	42
386	443077	18.941230817891	0
386	444249	18.960969944343	42
386	444437	18.965969944343	0
386	445317	18.984890958643	50
386	446034	18.989890958643	10
386	446240	18.994890958643	0
386	447525	19.016753373469	10
386	447739	19.021753373469	4
386	447806	19.026753373469	0
386	448928	19.041580721061	31
386	448997	19.046580721061	0
386	450013	19.065847147953	12
386	450188	19.070847147953	0
386	451349	19.092317178874	45
386	451395	19.097317178874	0
386	452246	19.116523057294	11
386	452404	19.121523057294	0
386	453255	19.138387175921	15
386	453957	19.143387175921	26
386	453996	19.148387175921	0
386	454830	19.169069620228	8
386	455605	19.174069620228	0
386	456567	19.196133685058	14
386	457078	19.201133685058	0
386	458289	19.226077004476	9
386	458466	19.231077004476	0
386	459126	19.252933664579	3
386	459321	19.257933664579	0
386	460185	19.279328922411	0
386	460514	19.284328922411	0
386	461406	19.311096840109	56
386	461433	19.316096840109	0
386	463480	19.382501774636	0
386	463778	19.387501774636	0
386	465339	19.437898321067	0
386	465351	19.442898321067	0
386	468438	19.534077776649	0
386	468580	19.539077776649	0
386	469192	19.563043419243	0
386	469330	19.568043419243	0
386	470397	19.605893789916	0
386	470416	19.610893789916	0
386	471183	19.639477673468	0
386	471187	19.644477673468	0
386	471498	19.65447644984	0
386	471508	19.65947644984	0
386	472518	19.694672436421	0
386	472519	19.699672436421	0
386	474342	19.727733796143	0
386	474843	19.732733796143	0
386	476923	19.796165209712	0
386	477064	19.801165209712	0
386	478483	19.860493238843	0
386	478496	19.865493238843	0
386	480070	19.94054847224	0
386	480216	19.94554847224	0
386	480877	19.96827651955	0
386	480881	19.97327651955	0
386	481771	20.00501	1
386	481788	20.01001	0
386	484023	20.039387808708	181
386	484670	20.044387808708	0
386	485020	20.049387808708	0
386	486520	20.065838654441	38
386	486981	20.070838654441	0
386	488849	20.094748479784	14
386	488932	20.099748479784	0
386	490454	20.120335668889	18
386	490514	20.125335668889	0
386	492083	20.154157690551	18
386	492762	20.159157690551	25
386	493436	20.164157690551	0
386	494767	20.188451182756	11
386	494849	20.193451182756	0
386	496254	20.213306937933	68
386	496299	20.218306937933	0
386	497589	20.238026511703	19
386	497777	20.243026511703	0
386	498733	20.263063078002	7
386	499123	20.268063078002	17
386	499164	20.273063078002	0
386	500258	20.29167255464	32
386	500299	20.29667255464	0
386	501097	20.31130367727	0
386	501766	20.31630367727	37
386	501810	20.32130367727	0
386	503150	20.344413269541	11
386	503195	20.349413269541	0
386	504420	20.37007240515	18
386	504477	20.37507240515	0
386	505515	20.392556519553	33
386	505824	20.397556519553	0
386	507084	20.425893806061	0
386	507102	20.430893806061	0
386	508019	20.446558078936	0
386	508526	20.451558078936	0
386	512303	20.54903417111	0
386	512529	20.55403417111	0
386	513813	20.590060531711	0
386	513976	20.595060531711	0
386	516948	20.687490251684	0
386	517331	20.692490251684	0
386	517941	20.719006889804	0
386	518093	20.724006889804	0
386	522590	20.839924538713	0
386	522741	20.844924538713	0
386	524669	20.90952754475	0
386	525022	20.91452754475	0
386	527200	20.971734553654	1
386	527613	20.976734553654	0
386	528585	21.00501	1
386	528746	21.01001	0
386	529512	21.039637288685	0
386	529531	21.044637288685	0
386	534630	21.221138973115	0
386	534642	21.226138973115	0
386	541972	21.475738939239	0
386	541984	21.480738939239	0
386	544659	21.570912204743	0
386	544797	21.575912204743	0
386	545823	21.606734462915	0
386	546100	21.611734462915	0
386	548731	21.713398271583	0
386	548732	21.718398271583	0
386	553180	21.90740612768	0
386	553181	21.91240612768	0
386	556015	22.00501	45
386	556451	22.01001	0
386	556736	22.01501	0
386	557484	22.034225088043	0
386	558351	22.039225088043	50
386	558602	22.044225088043	0
386	558743	22.049225088043	0
386	561049	22.085786109846	3
386	561417	22.090786109846	0
386	562894	22.111904078507	19
386	562922	22.116904078507	0
386	564084	22.137572681593	33
386	564320	22.142572681593	0
386	565431	22.164196168468	32
386	565482	22.169196168468	0
386	566813	22.188680970993	101
386	567017	22.193680970993	0
386	568259	22.213355078998	24
386	568326	22.218355078998	0
386	569555	22.238131245678	88
386	570005	22.243131245678	0
386	570097	22.248131245678	0
386	571244	22.264058711224	40
386	571455	22.269058711224	0
386	572695	22.29142341435	69
386	573425	22.29642341435	4
386	573570	22.30142341435	0
386	574620	22.321107279969	9
386	574691	22.326107279969	0
386	575871	22.346645786054	96
386	576236	22.351645786054	0
386	576313	22.356645786054	0
386	577541	22.37317854873	0
386	578049	22.37817854873	0
386	579216	22.405598866876	11
386	579260	22.410598866876	0
386	579562	22.422046330788	10
386	580258	22.427046330788	36
386	580603	22.432046330788	26
386	580791	22.437046330788	0
386	581502	22.453651088551	17
386	581861	22.458651088551	0
386	582225	22.463651088551	0
386	583259	22.478821497812	55
386	583375	22.483821497812	0
386	584088	22.489284495279	36
386	584194	22.494284495279	0
386	586841	22.541285311599	0
386	587167	22.546285311599	0
386	587710	22.553265961486	30
386	587764	22.558265961486	0
386	588360	22.570915849023	4
386	589104	22.575915849023	28
386	589144	22.580915849023	0
386	589597	22.595941219766	32
386	590639	22.600941219766	0
386	591815	22.624187390955	14
386	592316	22.629187390955	0
386	592884	22.648713206326	0
386	593595	22.653713206326	2
386	594161	22.658713206326	0
386	596660	22.708173670504	25
386	596729	22.713173670504	0
386	597859	22.733156356323	40
386	597912	22.738156356323	0
386	600280	22.782556756859	31
386	600300	22.787556756859	0
386	601373	22.806844213409	33
386	601615	22.811844213409	0
386	602785	22.837716984175	8
386	602822	22.842716984175	0
386	604910	22.877229647351	77
386	605267	22.882229647351	0
386	606300	22.903196317849	38
386	606792	22.908196317849	0
386	607639	22.932920563776	12
386	607687	22.937920563776	0
386	608855	22.956809395042	4
386	608884	22.961809395042	0
386	609757	22.983195498025	14
386	609783	22.988195498025	0
386	610792	23.00501	23
386	611203	23.01001	0
386	612375	23.033889917746	11
386	612417	23.038889917746	0
386	614941	23.107135901701	20
386	614976	23.112135901701	0
386	615935	23.131852440709	83
386	615965	23.136852440709	0
386	616747	23.154756123725	0
386	616767	23.159756123725	0
386	617379	23.177739090943	28
386	617411	23.182739090943	0
386	617732	23.190330518829	23
386	617885	23.195330518829	0
386	619100	23.22624909582	0
386	619732	23.23124909582	0
386	621413	23.272012005137	0
386	621432	23.277012005137	0
386	622732	23.319473789251	0
386	622751	23.324473789251	0
386	623421	23.34458922617	0
386	623429	23.34958922617	0
386	624475	23.393617811944	0
386	624771	23.398617811944	0
386	625992	23.450048761081	116
386	626130	23.455048761081	0
386	626777	23.479475109523	0
386	627045	23.484475109523	0
386	627114	23.50277816772	0
386	627752	23.50777816772	0
386	628272	23.51277816772	0
386	629724	23.557899342886	0
386	629875	23.562899342886	0
386	630581	23.58767633794	0
386	630719	23.59267633794	0
386	632007	23.641657844204	0
386	632146	23.646657844204	0
386	632166	23.657055699762	0
386	632175	23.662055699762	0
386	634201	23.727467978575	0
386	634336	23.732467978575	0
386	634918	23.755369850602	0
386	634922	23.760369850602	0
386	635674	23.790265832951	0
386	635812	23.795265832951	0
386	636520	23.822547987428	112
386	636521	23.827547987428	0
386	637329	23.866449869501	0
386	637333	23.871449869501	0
386	637778	23.893803132912	62
386	637779	23.898803132912	0
386	638536	23.932940019086	0
386	638540	23.937940019086	0
386	639253	23.985668023805	0
386	639257	23.990668023805	0
386	639891	24.038076635029	0
386	639937	24.043076635029	0
386	639964	24.048076635029	0
386	641825	24.107478413891	1
386	641831	24.112478413891	0
386	649766	24.39259606162	177
386	650356	24.39759606162	0
386	652762	24.418967330191	36
386	652888	24.423967330191	0
386	654686	24.444310178813	25
386	654798	24.449310178813	0
386	656020	24.46895527969	9
386	656078	24.47395527969	0
386	657112	24.493144256232	17
386	657313	24.498144256232	15
386	657524	24.503144256232	0
386	658461	24.518582828752	60
386	658764	24.523582828752	12