file 269124 1353539980                                          
version 2
run AODVScenario_1f-58-20121121-14:58:57-2188
attr configname AODVScenario_1f
attr datetime 20121121-14:58:57
attr experiment AODVScenario_1f
attr inifile AODV.ini
attr iterationvars $numNodes=108
attr iterationvars2 "$numNodes=108, $repetition=0"
attr measurement $numNodes=108
attr network csma802154net
attr numNodes 108
attr processid 2188
attr repetition 0
attr replication #0
attr resultdir results
attr runnumber 58
attr seedset 58
vector 443  csma802154net.dataCentricNetworkMan  RREQPacketFrequency  ETV
443	9189 39750 857 2855839 1.005 7273.077012084848 1398 0 122 3250 260192
vector 444  csma802154net.dataCentricNetworkMan  RERRPacketFrequency  ETV
444	48939 39690 857 2855839 1.005 7273.077012084848 1398 0 0 0 0
vector 445  csma802154net.dataCentricNetworkMan  DiscoveryPacketFrequency  ETV
445	88629 39690 857 2855839 1.005 7273.077012084848 1398 0 0 0 0
vector 446  csma802154net.dataCentricNetworkMan  RegisterPacketFrequency  ETV
446	128319 39690 857 2855839 1.005 7273.077012084848 1398 0 1 12 12
vector 447  csma802154net.dataCentricNetworkMan  RReplyPacketFrequency  ETV
447	168009 39702 857 2855839 1.005 7273.077012084848 1398 0 96 1641 56591
vector 448  csma802154net.dataCentricNetworkMan  AODVDataPacketFrequency  ETV
448	207711 39707 857 2855839 1.005 7273.077012084848 1398 0 74 1418 43194
vector 455  csma802154net.dataCentricNetworkMan  pendingRegistrationVector  ETV
455	261438 584 56187 964499 43.5 54.852942719011 24 0 1 12 12
vector 454  csma802154net.dataCentricNetworkMan  pendingRREQVector  ETV
454	260329 1109 56192 905963 43.50001 54.534466371465 40 0 1 17 17
vector 452  csma802154net.dataCentricNetworkMan  PendingDataPacketsVector  ETV
452	247418 12911 968928 2855581 70 7273.071892153418 416 0 3 520 1040
vector 460  csma802154net.fixhost[4].udpApp  "End-to-end delay"  ETV
460	262616 594 969833 2833623 70.009316021182 7270.008036021183 13 0.006756021183 0.011236021183 0.111508275376 0.00097477485209723
vector 440  csma802154net.dataCentricNetworkMan  dataPacketE2EDelay  ETV
440	2087 7102 969833 2855581 70.009316021182 7273.071892153418 156 0.006756021183 0.121100153421 5.95379006432 0.30957553051582
vector 461  csma802154net.fixhost[5].udpApp  "End-to-end delay"  ETV
461	263210 594 970343 2834133 70.013436041611 7270.012796041613 13 0.011196041613 0.015996041613 0.169868540965 0.0022464373853454
vector 464  csma802154net.fixhost[8].udpApp  "End-to-end delay"  ETV
464	264992 592 970867 2834657 70.017876073819 7270.018196073821 13 0.015316073822 0.020436073821 0.228548959677 0.0040421043514785
vector 468  csma802154net.fixhost[12].udpApp  "End-to-end delay"  ETV
468	265584 594 974613 2841060 71.024164063644 7271.057372063644 13 0.019436063642 0.057372063644 0.363092827365 0.01144498402493
vector 472  csma802154net.fixhost[16].udpApp  "End-to-end delay"  ETV
472	267352 594 975150 2838336 71.027684071464 7271.027044071464 13 0.019436071464 0.062668071462 0.469044929026 0.019523308207096
vector 473  csma802154net.fixhost[17].udpApp  "End-to-end delay"  ETV
473	267946 594 977316 2839416 71.059212110774 7271.035924110774 13 0.027036110774 0.076172110772 0.696589440049 0.040324977702378
vector 471  csma802154net.fixhost[15].udpApp  "End-to-end delay"  ETV
471	266758 594 981535 2845845 72.032124109747 7272.047164109748 13 0.032124109747 0.090468109747 0.672269554883 0.038167354263699
vector 459  csma802154net.fixhost[3].udpApp  "End-to-end delay"  ETV
459	262022 594 982088 2844243 72.034012073181 7272.021036073182 13 0.020716073183 0.062524106386 0.361269084188 0.01175743518399
vector 474  csma802154net.fixhost[18].udpApp  "End-to-end delay"  ETV
474	268540 584 983166 2846903 72.056692125818 7272.053492125819 13 0.02579612582 0.081580125819 0.660949635649 0.037455474175875
vector 462  csma802154net.fixhost[6].udpApp  "End-to-end delay"  ETV
462	263804 594 988062 2851802 73.033396100127 7273.033076100127 13 0.033076100127 0.077980100127 0.548949301639 0.026084254008205
vector 463  csma802154net.fixhost[7].udpApp  "End-to-end delay"  ETV
463	264398 594 991784 2854486 73.105180117005 7273.066532117003 13 0.034996117003 0.105180117005 0.765685521047 0.050039882296011
vector 469  csma802154net.fixhost[13].udpApp  "End-to-end delay"  ETV
469	266178 580 993428 2855581 73.121100153421 7273.071892153418 13 0.04892415342 0.121100153421 0.906013994456 0.067514544064717
