version 2
run AODVScenario_1f-26-20121121-14:48:52-1712
attr configname AODVScenario_1f
attr datetime 20121121-14:48:52
attr experiment AODVScenario_1f
attr inifile AODV.ini
attr iterationvars $numNodes=76
attr iterationvars2 "$numNodes=76, $repetition=0"
attr measurement $numNodes=76
attr network csma802154net
attr numNodes 76
attr processid 1712
attr repetition 0
attr replication #0
attr resultdir results
attr runnumber 26
attr seedset 26

vector 315  csma802154net.dataCentricNetworkMan  RREQPacketFrequency  ETV
vector 316  csma802154net.dataCentricNetworkMan  RERRPacketFrequency  ETV
vector 317  csma802154net.dataCentricNetworkMan  DiscoveryPacketFrequency  ETV
vector 318  csma802154net.dataCentricNetworkMan  RegisterPacketFrequency  ETV
vector 319  csma802154net.dataCentricNetworkMan  RReplyPacketFrequency  ETV
vector 320  csma802154net.dataCentricNetworkMan  AODVDataPacketFrequency  ETV
vector 327  csma802154net.dataCentricNetworkMan  pendingRegistrationVector  ETV
vector 326  csma802154net.dataCentricNetworkMan  pendingRREQVector  ETV
vector 324  csma802154net.dataCentricNetworkMan  PendingDataPacketsVector  ETV
vector 338  csma802154net.fixhost[10].udpApp  "End-to-end delay"  ETV
vector 312  csma802154net.dataCentricNetworkMan  dataPacketE2EDelay  ETV
vector 340  csma802154net.fixhost[12].udpApp  "End-to-end delay"  ETV
vector 341  csma802154net.fixhost[13].udpApp  "End-to-end delay"  ETV
vector 347  csma802154net.fixhost[19].udpApp  "End-to-end delay"  ETV
vector 349  csma802154net.fixhost[21].udpApp  "End-to-end delay"  ETV
vector 350  csma802154net.fixhost[22].udpApp  "End-to-end delay"  ETV
vector 342  csma802154net.fixhost[14].udpApp  "End-to-end delay"  ETV
vector 333  csma802154net.fixhost[5].udpApp  "End-to-end delay"  ETV
vector 339  csma802154net.fixhost[11].udpApp  "End-to-end delay"  ETV
vector 335  csma802154net.fixhost[7].udpApp  "End-to-end delay"  ETV
vector 330  csma802154net.fixhost[2].udpApp  "End-to-end delay"  ETV
312	711997	70.015604037494	0.015604037494
312	712783	70.020684061928	0.020684061928
312	713187	70.023596089886	0.023596089886
312	715306	71.021004048495	0.021004048495
312	716299	71.029316078184	0.029316078184
312	717514	71.079764106029	0.079764106029
312	720413	72.029916128749	0.029916128749
312	721174	72.039764114664	0.039764114664
312	721552	72.04488413327	0.04488413327
312	724907	73.041396128156	0.041396128156
312	725723	73.064156101204	0.064156101204
312	819941	670.014076037496	0.014076037496
312	820729	670.020684061928	0.020684061928
312	821508	670.028964089887	0.028964089887
312	823622	671.019796048496	0.019796048496
312	825008	671.03023610603	0.03023610603
312	825844	671.057260078184	0.057260078184
312	829106	672.028636114664	0.028636114664
312	829645	672.032724133269	0.032724133269
312	830054	672.057292128748	0.057292128748
312	833358	673.032796101203	0.032796101203
312	834201	673.041324128156	0.041324128156
312	928419	1270.012156037496	0.012156037496
312	929210	1270.020044061929	0.020044061929
312	929989	1270.027684089887	0.027684089887
312	931726	1271.018836048496	0.018836048496
312	933325	1271.03752410603	0.03752410603
312	934160	1271.049828078184	0.049828078184
312	937074	1272.028924102074	0.028924102074
312	937824	1272.031484083166	0.031484083166
312	938200	1272.051604128748	0.051604128748
312	941520	1273.033116101204	0.033116101204
312	942362	1273.039404128157	0.039404128157
312	1036655	1870.011836037495	0.011836037495
312	1037776	1870.043084061928	0.043084061928
312	1038561	1870.071452089885	0.071452089885
312	1040685	1871.020684048493	0.020684048493
312	1041683	1871.026684078183	0.026684078183
312	1042897	1871.060812106028	0.060812106028
312	1045488	1872.027076083166	0.027076083166
312	1046339	1872.058932102074	0.058932102074
312	1047119	1872.068740128748	0.068740128748
312	1050623	1873.035604101202	0.035604101202
312	1051477	1873.061804128155	0.061804128155
312	1146091	2470.012476037496	0.012476037496
312	1146886	2470.022284061929	0.022284061929
312	1147666	2470.034972089887	0.034972089887
312	1149561	2471.016276048496	0.016276048496
312	1151163	2471.054164106029	0.054164106029
312	1151992	2471.059500078185	0.059500078185
312	1154661	2472.025476083166	0.025476083166
312	1155802	2472.051572102074	0.051572102074
312	1156389	2472.077132128749	0.077132128749
312	1160714	2473.039724128157	0.039724128157
312	1161129	2473.060244101204	0.060244101204
312	1255503	3070.011196037496	0.011196037496
312	1256461	3070.040524061928	0.040524061928
312	1257246	3070.070492089886	0.070492089886
312	1258983	3071.017876048495	0.017876048495
312	1260996	3071.040012106029	0.040012106029
312	1263216	3071.117772078183	0.117772078183
312	1265726	3072.028996083166	0.028996083166
312	1266480	3072.035324102074	0.035324102074
312	1267255	3072.041684128749	0.041684128749
312	1270723	3073.030556101204	0.030556101204
312	1271748	3073.058604128157	0.058604128157
312	1366803	3670.016564037496	0.016564037496
312	1367590	3670.025764089887	0.025764089887
312	1368002	3670.029572061929	0.029572061929
312	1369735	3671.018836048496	0.018836048496
312	1371484	3671.031804078185	0.031804078185
312	1372321	3671.05985210603	0.05985210603
312	1375002	3672.025796083166	0.025796083166
312	1375764	3672.056372102074	0.056372102074
312	1376544	3672.064260128749	0.064260128749
312	1379646	3673.027356101204	0.027356101204
312	1380871	3673.057324128157	0.057324128157
312	1475472	4270.015924037496	0.015924037496
312	1476257	4270.023844089886	0.023844089886
312	1476671	4270.029324061927	0.029324061927
312	1478404	4271.017876048495	0.017876048495
312	1480415	4271.036460078182	0.036460078182
312	1480833	4271.038804106028	0.038804106028
312	1483514	4272.029316083164	0.029316083164
312	1484277	4272.061492102071	0.061492102071
312	1485056	4272.070980128745	0.070980128745
312	1488372	4273.028636101203	0.028636101203
312	1489211	4273.034356128154	0.034356128154
312	1583816	4870.016596061928	0.016596061928
312	1584765	4870.028324089887	0.028324089887
312	1585180	4870.056740037496	0.056740037496
312	1587072	4871.020116048496	0.020116048496
312	1589089	4871.060852078184	0.060852078184
312	1589512	4871.072580106029	0.072580106029
312	1592970	4872.032156114664	0.032156114664
312	1593348	4872.03816413327	0.03816413327
312	1593754	4872.057292128749	0.057292128749
312	1597108	4873.034036128156	0.034036128156
312	1597924	4873.042252101204	0.042252101204
312	1692600	5470.014964037496	0.014964037496
312	1693179	5470.018124061929	0.018124061929
312	1693960	5470.044644089887	0.044644089887
312	1696670	5471.027716078184	0.027716078184
312	1697079	5471.034692048495	0.034692048495
312	1698701	5471.064012106029	0.064012106029
312	1701210	5472.028356083166	0.028356083166
312	1701962	5472.033404102074	0.033404102074
312	1702742	5472.041044128749	0.041044128749
312	1706494	5473.035956128154	0.035956128154
312	1706908	5473.040084101201	0.040084101201
312	1801123	6070.012796037496	0.012796037496
312	1802297	6070.030212061929	0.030212061929
312	1802702	6070.034972089886	0.034972089886
312	1806053	6071.028532078185	0.028532078185
312	1806475	6071.03112410603	0.03112410603
312	1806879	6071.033660048495	0.033660048495
312	1810161	6072.032476128748	0.032476128748
312	1810713	6072.039444114663	0.039444114663
312	1811484	6072.058644133269	0.058644133269
312	1814814	6073.029596101203	0.029596101203
312	1815654	6073.036844128157	0.036844128157
312	1909872	6670.013116037496	0.013116037496
312	1910667	6670.023244061929	0.023244061929
312	1911447	6670.034652089887	0.034652089887
312	1914774	6671.033556048495	0.033556048495
312	1915199	6671.037996060046	0.037996060046
312	1915619	6671.040620078182	0.040620078182
312	1918288	6672.028356083164	0.028356083164
312	1919049	6672.049724102073	0.049724102073
312	1919824	6672.057364128748	0.057364128748
312	1922942	6673.030876101204	0.030876101204
312	1923977	6673.040364128157	0.040364128157
312	2018271	7270.015676037496	0.015676037496
312	2019448	7270.027012061929	0.027012061929
312	2019849	7270.029532089887	0.029532089887
312	2023194	7271.03208410603	0.03208410603
312	2023801	7271.042540078185	0.042540078185
312	2024212	7271.057020048496	0.057020048496
312	2026803	7272.028996083166	0.028996083166
312	2028034	7272.061740102073	0.061740102073
312	2028433	7272.063692128748	0.063692128748
312	2031376	7273.029916101204	0.029916101204
312	2032596	7273.041004128157	0.041004128157
315	607	1.005	1
315	822	1.01	20
315	1318	1.015	28
315	2199	1.02	73
315	3217	1.025	82
315	4507	1.03	59
315	6010	1.035	53
315	7818	1.04	22
315	8894	1.045	68
315	9787	1.05	58
315	10445	1.055	34
315	10984	1.06	42
315	11592	1.065	58
315	12369	1.07	42
315	12806	1.075	42
315	13322	1.08	38
315	13722	1.085	51
315	14057	1.09	34
315	14606	1.095	48
315	14613	1.1	0
315	15140	1.108167328629	25
315	15695	1.113167328629	65
315	15696	1.118167328629	0
315	15987	1.132909773376	27
315	15988	1.137909773376	0
315	16344	1.154294661096	40
315	16430	1.159294661096	0
315	16681	1.164398447131	36
315	16682	1.169398447131	0
315	23380	43.505	1
315	24225	43.51	36
315	25671	43.515	0
315	26914	43.52	0
315	27755	43.525	0
315	28686	43.53	0
315	29291	43.535	0
315	30545	43.542879016047	0
315	31469	43.547879016047	0
315	32859	43.557490551037	0
315	33595	43.562490551037	0
315	34348	43.568330866644	0
315	35534	43.573330866644	0
315	36421	43.578330866644	0
315	37093	43.583330866644	0
315	38153	43.588330866644	0
315	39024	43.593330866644	0
315	39989	43.598330866644	0
315	40806	43.603330866644	0
315	41768	43.612270897438	0
315	42643	43.617270897438	0
315	43772	43.622270897438	0
315	44593	43.627270897438	0
315	45501	43.632270897438	0
315	46068	43.637270897438	0
315	46641	43.642270897438	0
315	47364	43.647270897438	0
315	47948	43.652270897438	0
315	49076	43.658738061118	0
315	49880	43.663738061118	0
315	52408	43.681994840672	0
315	53056	43.686994840672	0
315	53534	43.691994840672	0
315	54592	43.697202076476	0
315	55038	43.702202076476	0
315	55412	43.707202076476	0
315	56059	43.712202076476	0
315	56794	43.717202076476	0
315	57698	43.722202076476	0
315	58216	43.727202076476	0
315	59668	43.736758811176	0
315	60343	43.741758811176	0
315	61068	43.746758811176	0
315	62135	43.753601120875	0
315	62860	43.758601120875	0
315	63459	43.763601120875	0
315	64200	43.768601120875	0
315	64688	43.773601120875	0
315	65907	43.780555635362	0
315	66523	43.785555635362	0
315	67917	43.795467734709	0
315	68737	43.800467734709	0
315	69686	43.805467734709	0
315	70360	43.810467734709	0
315	71000	43.815467734709	0
315	71373	43.820467734709	0
315	72157	43.826085131085	0
315	72812	43.831085131085	0
315	73656	43.840881010044	0
315	74230	43.845881010044	0
315	74309	43.850881010044	0
315	74395	43.855881010044	0
315	74956	43.861965555874	0
315	75447	43.866965555874	0
315	75900	43.871965555874	0
315	76655	43.878051134707	0
315	76959	43.883051134707	0
315	77340	43.888051134707	0
315	77341	43.893051134707	0
315	78198	43.911073021987	0
315	78589	43.916073021987	0
315	78878	43.921073021987	0
315	78879	43.926073021987	0
315	79039	44.505	1
315	79131	44.51	0
315	80596	44.515351775081	34
315	81996	44.520351775081	0
315	83185	44.525351775081	0
315	84159	44.530351775081	0
315	84835	44.535351775081	0
315	85705	44.540351775081	0
315	86517	44.545351775081	0
315	87800	44.554058977015	0
315	88573	44.559058977015	0
315	89406	44.564058977015	0
315	91118	44.57414493857	0
315	91958	44.57914493857	0
315	92609	44.58414493857	0
315	94173	44.593979037713	0
315	95255	44.598979037713	0
315	95908	44.603979037713	0
315	97566	44.615295965098	0
315	98247	44.620295965098	0
315	100355	44.637071450775	0
315	100984	44.642071450775	0
315	102372	44.652822590187	0
315	102679	44.657822590187	0
315	103420	44.662822590187	0
315	104268	44.667822590187	0
315	106687	44.68912603122	0
315	107508	44.69412603122	0
315	107984	44.69912603122	0
315	108626	44.70412603122	0
315	109295	44.70912603122	0
315	109918	44.71412603122	0
315	110550	44.71912603122	0
315	111662	44.730439468065	0
315	112396	44.735439468065	0
315	113031	44.740439468065	0
315	114075	44.745439468065	0
315	114616	44.750439468065	0
315	114896	44.755439468065	0
315	115944	44.760439468065	0
315	116707	44.765439468065	0
315	117516	44.770439468065	0
315	118097	44.775439468065	0
315	118671	44.780439468065	0
315	119443	44.785439468065	0
315	120103	44.790439468065	0
315	120871	44.79671576435	0
315	121556	44.80171576435	0
315	122371	44.80671576435	0
315	122851	44.815201482119	0
315	123328	44.820201482119	0
315	123606	44.825201482119	0
315	124839	44.835312490623	0
315	125521	44.840312490623	0
315	125904	44.845312490623	0
315	126462	44.850312490623	0
315	126652	44.855312490623	0
315	127295	44.865913351178	0
315	127671	44.870913351178	0
315	128334	44.875913351178	0
315	128338	44.880913351178	0
315	129106	44.90203495022	0
315	129485	44.90703495022	0
315	129677	44.91203495022	0
315	130267	44.917034965692	0
315	130353	44.922034965692	0
315	130910	44.92815498977	0
315	130993	44.93315498977	0
315	131891	45.054718052238	0
315	131892	45.059718052238	0
315	131899	45.505	1
315	131909	45.51	0
315	133484	45.517169199728	39
315	134923	45.522169199728	0
315	136115	45.527169199728	0
315	137140	45.532169199728	0
315	138397	45.537827184758	0
315	139109	45.542827184758	0
315	140363	45.547827184758	0
315	141335	45.552827184758	0
315	141990	45.557827184758	0
315	142759	45.562827184758	0
315	143615	45.567827184758	0
315	144631	45.572827184758	0
315	145713	45.577827184758	0
315	146544	45.582827184758	0
315	147233	45.587963203915	0
315	148272	45.592963203915	0
315	148876	45.597963203915	0
315	149652	45.604388752804	0
315	150557	45.609388752804	0
315	151220	45.614388752804	0
315	151706	45.619388752804	0
315	153434	45.627321716646	0
315	154191	45.632321716646	0
315	154838	45.637321716646	0
315	155664	45.642321716646	0
315	157376	45.653186359064	0
315	157898	45.658186359064	0
315	158633	45.663186359064	0
315	159539	45.670145635601	0
315	160403	45.675145635601	0
315	161272	45.680145635601	0
315	161775	45.685145635601	0
315	162726	45.690145635601	0
315	163376	45.695145635601	0
315	164127	45.700145635601	0
315	165260	45.705145635601	0
315	166104	45.710145635601	0
315	166775	45.715145635601	0
315	168337	45.72889516106	0
315	168913	45.73389516106	0
315	169311	45.73889516106	0
315	169905	45.74389516106	0
315	170640	45.74889516106	0
315	172732	45.76867111438	0
315	173488	45.77367111438	0
315	174060	45.77867111438	0
315	175173	45.79158127993	0
315	175797	45.79658127993	0
315	176703	45.803686650311	0
315	177196	45.808686650311	0
315	177707	45.817905186216	0
315	178254	45.822905186216	0
315	180015	45.843443791603	0
315	180853	45.848443791603	0
315	181447	45.853443791603	0
315	182431	45.858443791603	0
315	182916	45.863443791603	0
315	183981	45.868443791603	0
315	184522	45.873443791603	0
315	185751	45.887275829529	0
315	186044	45.892275829529	0
315	187639	45.914143755264	0
315	187650	45.919143755264	0
315	188255	45.924143755264	0
315	188732	45.929143755264	0
315	189519	45.9359221009	0
315	189520	45.9409221009	0
315	190112	45.950821495784	0
315	190693	45.955821495784	0
315	190694	45.960821495784	0
315	191244	46.016744344312	0
315	191245	46.021744344312	0
315	191264	46.505	1
315	191994	46.51	38
315	193501	46.515	0
315	194615	46.52	0
315	195775	46.525	0
315	196763	46.53	0
315	197933	46.535	0
315	198968	46.54	0
315	200088	46.545	0
315	200693	46.55	0
315	201170	46.555	0
315	202050	46.560818659886	0
315	203291	46.565818659886	0
315	203965	46.570818659886	0
315	204993	46.575818659886	0
315	206182	46.580818659886	0
315	206959	46.585818659886	0
315	208245	46.590818659886	0
315	209217	46.595818659886	0
315	210284	46.600818659886	0
315	211217	46.605818659886	0
315	211863	46.610818659886	0
315	213546	46.620427712171	0
315	214217	46.625427712171	0
315	215272	46.631853830626	0
315	216280	46.636853830626	0
315	216926	46.641853830626	0
315	217992	46.649002506809	0
315	218955	46.654002506809	0
315	219893	46.659002506809	0
315	221203	46.66804101954	0
315	222187	46.67304101954	0
315	222681	46.67804101954	0
315	223966	46.685781862272	0
315	225009	46.690781862272	0
315	226037	46.697128398526	0
315	226335	46.702128398526	0
315	226959	46.707375043079	0
315	227794	46.712375043079	0
315	228904	46.717375043079	0
315	229844	46.722375043079	0
315	230257	46.727375043079	0
315	231308	46.732375043079	0
315	232083	46.737375043079	0
315	232729	46.742375043079	0
315	233415	46.747375043079	0
315	234535	46.752375043079	0
315	235109	46.757375043079	0
315	235704	46.762375043079	0
315	236439	46.767375043079	0
315	237433	46.775210527791	0
315	238465	46.780210527791	0
315	239246	46.785210527791	0
315	239888	46.790210527791	0
315	240620	46.795210527791	0
315	241292	46.800210527791	0
315	242017	46.805210527791	0
315	242958	46.812110085353	0
315	243425	46.817110085353	0
315	244193	46.822186678831	0
315	244685	46.827186678831	0
315	245427	46.832186678831	0
315	245882	46.837186678831	0
315	246401	46.842186678831	0
315	246787	46.847186678831	0
315	247191	46.852186678831	0
315	247277	46.857186678831	0
315	247942	46.862728419504	0
315	247943	46.867728419504	0
315	248345	46.885771707359	0
315	248346	46.890771707359	0
315	248732	46.915072434041	0
315	248733	46.920072434041	0
315	249126	46.995576453828	0
315	249280	47.000576453828	0
315	249287	47.505	1
315	249300	47.51	0
315	250844	47.51697525984	40
315	252206	47.52197525984	0
315	253724	47.52697525984	0
315	254912	47.53197525984	0
315	255513	47.53697525984	0
315	256711	47.54197525984	0
315	258187	47.54697525984	0
315	259498	47.55197525984	0
315	260478	47.55697525984	0
315	261352	47.56197525984	0
315	262401	47.567275434169	0
315	263364	47.572275434169	0
315	264024	47.577275434169	0
315	264966	47.582275434169	0
315	266227	47.590240030692	0
315	267490	47.595240030692	0
315	268434	47.600240030692	0
315	269927	47.60690563835	0
315	271012	47.61190563835	0
315	271888	47.61690563835	0
315	272466	47.62190563835	0
315	273586	47.630579448431	0
315	274455	47.635579448431	0
315	275730	47.640579448431	0
315	278867	47.66257079946	0
315	279471	47.66757079946	0
315	280175	47.67257079946	0
315	281298	47.67757079946	0
315	281984	47.68257079946	0
315	282669	47.68757079946	0
315	283487	47.69257079946	0
315	284326	47.69757079946	0
315	285290	47.70257079946	0
315	285953	47.70757079946	0
315	286777	47.71257079946	0
315	287648	47.71757079946	0
315	288653	47.72257079946	0
315	289338	47.72757079946	0
315	290609	47.73257079946	0
315	291377	47.73757079946	0
315	292349	47.74257079946	0
315	293410	47.74757079946	0
315	294333	47.75257079946	0
315	296645	47.766710415408	0
315	297510	47.771710415408	0
315	298472	47.776710415408	0
315	300483	47.791588621674	0
315	301228	47.796588621674	0
315	302353	47.802210842773	0
315	302954	47.807210842773	0
315	304164	47.814196298931	0
315	304682	47.819196298931	0
315	305362	47.824196298931	0
315	305972	47.829196298931	0
315	306643	47.834196298931	0
315	306820	47.839196298931	0
315	308165	47.851659476977	0
315	308644	47.856659476977	0
315	309364	47.861659476977	0
315	309373	47.866659476977	0
315	309780	47.871659476977	0
315	309869	47.876659476977	0
315	310577	47.883034059959	0
315	311356	47.888034059959	0
315	311756	47.893034059959	0
315	312154	47.898034059959	0
315	312155	47.903034059959	0
315	312934	47.920248409896	0
315	312935	47.925248409896	0
315	313464	48.505	1
315	314011	48.51	39
315	315654	48.515	0
315	317510	48.52	0
315	318596	48.525	0
315	319370	48.53	0
315	320240	48.535	0
315	321039	48.54	0
315	321933	48.545	0
315	323605	48.552848765924	0
315	324568	48.557848765924	0
315	325594	48.562848765924	0
315	326761	48.57367347849	0
315	327393	48.57867347849	0
315	327996	48.58367347849	0
315	328862	48.58867347849	0
315	329826	48.594012824855	0
315	330605	48.599012824855	0
315	331328	48.604012824855	0
315	332288	48.609012824855	0
315	333442	48.614012824855	0
315	334309	48.619012824855	0
315	334680	48.624012824855	0
315	335739	48.631072436965	0
315	336595	48.636072436965	0
315	337882	48.644624080066	0
315	339086	48.649624080066	0
315	339869	48.654624080066	0
315	340333	48.659624080066	0
315	341478	48.667233498589	0
315	342684	48.672233498589	0
315	343486	48.677233498589	0
315	344628	48.682233498589	0
315	345467	48.687233498589	0
315	346151	48.692233498589	0
315	347111	48.697233498589	0
315	348136	48.702233498589	0
315	348939	48.707233498589	0
315	350018	48.712233498589	0
315	351093	48.719038915744	0
315	351861	48.724038915744	0
315	352610	48.729038915744	0
315	353486	48.734038915744	0
315	354740	48.742961431538	0
315	355732	48.747961431538	0
315	356478	48.752961431538	0
315	357142	48.757961431538	0
315	357911	48.763794773206	0
315	358593	48.768794773206	0
315	360013	48.77577191825	0
315	361235	48.78077191825	0
315	362374	48.78577191825	0
315	363499	48.79077191825	0
315	364449	48.79577191825	0
315	365515	48.80077191825	0
315	366430	48.80577191825	0
315	366842	48.81077191825	0
315	367730	48.81577191825	0
315	368280	48.82077191825	0
315	369364	48.828204137631	0
315	369997	48.833204137631	0
315	371461	48.840707895716	0
315	372422	48.845707895716	0
315	372834	48.850707895716	0
315	373507	48.856082644281	0
315	374427	48.861082644281	0
315	374748	48.866082644281	0
315	375783	48.871082644281	0
315	376098	48.876082644281	0
315	376549	48.881082644281	0
315	377244	48.886082644281	0
315	377736	48.891082644281	0
315	378136	48.896082644281	0
315	378632	48.901152686963	0
315	378914	48.906152686963	0
315	379614	48.911616786105	0
315	379980	48.916616786105	0
315	380176	49.505	1
315	380186	49.51	0
315	380695	49.51752021057	9
315	381336	49.52252021057	0
315	381895	49.52752021057	0
315	382653	49.53252021057	0
315	383306	49.53752021057	0
315	383781	49.54252021057	0
315	384582	49.54752021057	0
315	385296	49.55252021057	0
315	385985	49.55752021057	0
315	386333	49.563985637072	0
315	386989	49.568985637072	0
315	387740	49.577643987647	0
315	388844	49.582643987647	0
315	389130	49.587643987647	0
315	389407	49.592643987647	0
315	389517	49.597643987647	0
315	390280	49.605022638977	0
315	390808	49.610022638977	0
315	391199	49.615022638977	0
315	392484	49.630811971827	0
315	393020	49.635811971827	0
315	394276	49.661466778868	0
315	394650	49.666466778868	0
315	395009	49.676851020128	0
315	395010	49.681851020128	0
315	395204	50.505	1
315	395214	50.51	0
315	396459	50.517280639105	35
315	397345	50.522280639105	0
315	398374	50.527280639105	0
315	399325	50.532280639105	0
315	399949	50.537280639105	0
315	400983	50.542280639105	0
315	402142	50.547280639105	0
315	403236	50.552280639105	0
315	405115	50.565843885353	0
315	406084	50.570843885353	0
315	407204	50.575843885353	0
315	408866	50.586160019509	0
315	409889	50.591160019509	0
315	413364	50.60690263406	0
315	414221	50.61190263406	0
315	415180	50.61690263406	0
315	415846	50.62190263406	0
315	417725	50.633696429672	0
315	418683	50.638696429672	0
315	420725	50.655680121062	0
315	421465	50.660680121062	0
315	422674	50.666110142783	0
315	423798	50.671110142783	0
315	426027	50.686965992103	0
315	426885	50.691965992103	0
315	428440	50.702388504123	0
315	429607	50.707388504123	0
315	431440	50.721321388084	0
315	432417	50.726321388084	0
315	433247	50.731321388084	0
315	434404	50.737543941403	0
315	435367	50.742543941403	0
315	436094	50.747543941403	0
315	436813	50.752543941403	0
315	438622	50.762916361473	0
315	439759	50.767916361473	0
315	440623	50.772916361473	0
315	441985	50.780933061269	0
315	442859	50.785933061269	0
315	443789	50.790933061269	0
315	444461	50.795933061269	0
315	445218	50.800933061269	0
315	445771	50.805933061269	0
315	446379	50.810933061269	0
315	446869	50.815933061269	0
315	447804	50.820933061269	0
315	448397	50.825933061269	0
315	449083	50.830933061269	0
315	450133	50.837708291497	0
315	450846	50.842708291497	0
315	451261	50.847708291497	0
315	451643	50.852708291497	0
315	451645	50.857708291497	0
315	452991	50.876654542874	0
315	453379	50.881654542874	0
315	453381	50.886654542874	0
315	454925	50.899435559245	0
315	455219	50.904435559245	0
315	455716	50.909435559245	0
315	455804	50.914435559245	0
315	456318	50.919435559245	0
315	456797	50.924435559245	0
315	457862	50.933555594536	0
315	458696	50.938555594536	0
315	459809	50.948307653309	0
315	460400	50.953307653309	0
315	460991	50.958307653309	0
315	461759	50.990820291046	0
315	461760	50.995820291046	0
315	462315	51.031324316789	0
315	462316	51.036324316789	0
315	462368	51.505	1
315	462784	51.51	31
315	464504	51.515	0
315	465581	51.52	0
315	466764	51.525	0
315	467548	51.53	0
315	468587	51.535	0
315	469296	51.54	0
315	470457	51.545	0
315	471317	51.55	0
315	472280	51.555	0
315	473380	51.564257620873	0
315	474371	51.569257620873	0
315	475244	51.574257620873	0
315	476215	51.579257620873	0
315	477128	51.584257620873	0
315	478196	51.592890680877	0
315	479261	51.597890680877	0
315	479858	51.602890680877	0
315	480349	51.607890680877	0
315	481402	51.61347715437	0
315	482190	51.61847715437	0
315	483943	51.629878848359	0
315	484791	51.634878848359	0
315	485393	51.639910876514	0
315	485995	51.644910876514	0
315	488526	51.662873819818	0
315	489506	51.667873819818	0
315	490370	51.672873819818	0
315	491129	51.677873819818	0
315	491741	51.682873819818	0
315	492962	51.687873819818	0
315	493546	51.692873819818	0
315	497209	51.717436044589	0
315	498273	51.722436044589	0
315	498791	51.727436044589	0
315	499649	51.732436044589	0
315	500574	51.737436044589	0
315	501519	51.744267089481	0
315	501917	51.749267089481	0
315	502378	51.754267089481	0
315	504272	51.768282024265	0
315	504669	51.773282024265	0
315	505146	51.778282024265	0
315	506322	51.78802490156	0
315	506919	51.79302490156	0
315	507052	51.79802490156	0
315	507231	51.80302490156	0
315	508713	51.813233632536	0
315	509617	51.818233632536	0
315	510404	51.829556835015	0
315	510990	51.834556835015	0
315	511375	51.839556835015	0
315	512966	51.859488187524	0
315	513824	51.864488187524	0
315	514574	51.869488187524	0
315	516042	51.892464210767	0
315	516453	51.897464210767	0
315	516666	51.916802153887	0
315	516752	51.921802153887	0
315	517473	51.927300873991	0
315	517847	51.932300873991	0
315	518337	51.942336113896	0
315	518662	51.947336113896	0
315	518663	51.952336113896	0
315	518861	52.505	1
315	518868	52.51	0
315	520346	52.519625621421	32
315	521922	52.524625621421	0
315	522902	52.529625621421	0
315	523906	52.534625621421	0
315	524830	52.539625621421	0
315	525594	52.544625621421	0
315	526544	52.549625621421	0
315	527453	52.554625621421	0
315	528414	52.559625621421	0
315	528938	52.564625621421	0
315	529542	52.569625621421	0
315	530537	52.574625621421	0
315	532006	52.582110905491	0
315	532782	52.587110905491	0
315	534951	52.601254408585	0
315	535637	52.606254408585	0
315	536032	52.611254408585	0
315	537173	52.616254408585	0
315	538049	52.621254408585	0
315	538753	52.626254408585	0
315	539345	52.631254408585	0
315	540468	52.636254408585	0
315	541556	52.641254408585	0
315	542220	52.646254408585	0
315	543115	52.651254408585	0
315	543581	52.656254408585	0
315	544857	52.664820824751	0
315	545640	52.669820824751	0
315	546541	52.674820824751	0
315	547526	52.679820824751	0
315	548796	52.684820824751	0
315	549588	52.689820824751	0
315	550564	52.694820824751	0
315	551328	52.699820824751	0
315	551741	52.704820824751	0
315	552718	52.709820824751	0
315	553426	52.714820824751	0
315	554103	52.719820824751	0
315	554589	52.724820824751	0
315	554995	52.729820824751	0
315	555787	52.734820824751	0
315	556484	52.739820824751	0
315	556775	52.744820824751	0
315	557061	52.749820824751	0
315	558166	52.758637940473	0
315	558477	52.763637940473	0
315	558563	52.768637940473	0
315	559274	52.774773956377	0
315	559732	52.779773956377	0
315	560461	52.786177978062	0
315	560942	52.791177978062	0
315	561242	52.796177978062	0
315	561330	52.801177978062	0
315	562032	52.806642811346	0
315	562611	52.811642811346	0
315	562982	52.816642811346	0
315	564315	52.83620311997	0
315	565012	52.84120311997	0
315	565423	52.84620311997	0
315	565424	52.85120311997	0
315	566190	52.868016438348	0
315	566191	52.873016438348	0
315	567188	53.505	1
315	567198	53.51	0
315	569277	53.518174938356	51
315	570955	53.523174938356	0
315	572631	53.529589124428	0
315	573626	53.534589124428	0
315	574621	53.539589124428	0
315	576135	53.544589124428	0
315	577236	53.549589124428	0
315	578572	53.554589124428	0
315	579867	53.559589124428	0
315	581072	53.564589124428	0
315	582117	53.569589124428	0
315	582816	53.574589124428	0
315	584398	53.580066156886	0
315	585949	53.585066156886	0
315	587305	53.590066156886	0
315	588580	53.595066156886	0
315	589382	53.600066156886	0
315	590385	53.605066156886	0
315	591550	53.610066156886	0
315	592529	53.615066156886	0
315	595067	53.628894709104	0
315	596431	53.633894709104	0
315	597656	53.638894709104	0
315	599189	53.644429719254	0
315	600368	53.649429719254	0
315	601187	53.654429719254	0
315	602009	53.659429719254	0
315	603419	53.664429719254	0
315	604515	53.669429719254	0
315	605385	53.674429719254	0
315	607273	53.684604568855	0
315	608240	53.689604568855	0
315	609138	53.694604568855	0
315	613589	53.717538924108	0
315	614253	53.722538924108	0
315	615912	53.731767475198	0
315	616992	53.736767475198	0
315	618025	53.741767475198	0
315	619183	53.746767475198	0
315	620096	53.751767475198	0
315	621222	53.759235143148	0
315	621719	53.764235143148	0
315	623079	53.769235143148	0
315	624231	53.774235143148	0
315	625309	53.779235143148	0
315	626439	53.784235143148	0
315	627322	53.789235143148	0
315	628453	53.794235143148	0
315	629147	53.799235143148	0
315	630129	53.804235143148	0
315	630865	53.809235143148	0
315	631589	53.814235143148	0
315	632605	53.819235143148	0
315	633370	53.824235143148	0
315	634836	53.830916444302	0
315	635391	53.835916444302	0
315	636329	53.841070170587	0
315	637035	53.846070170587	0
315	638029	53.851070170587	0
315	639019	53.856070170587	0
315	639986	53.861070170587	0
315	641270	53.870180147644	0
315	641875	53.875180147644	0
315	642978	53.880180147644	0
315	643682	53.885180147644	0
315	645450	53.900803285799	0
315	646430	53.905803285799	0
315	646893	53.910803285799	0
315	647705	53.915803285799	0
315	648033	53.920803285799	0
315	648467	53.925803285799	0
315	649062	53.930803285799	0
315	649486	53.935803285799	0
315	649998	53.940803285799	0
315	650727	53.945803285799	0
315	651566	53.958789481948	0
315	651981	53.963789481948	0
315	652709	53.971830703294	0