file 285785 1353540151                                          
version 2
run AODVScenario_1f-73-20121121-15:05:23-5772
attr configname AODVScenario_1f
attr datetime 20121121-15:05:23
attr experiment AODVScenario_1f
attr inifile AODV.ini
attr iterationvars $numNodes=123
attr iterationvars2 "$numNodes=123, $repetition=0"
attr measurement $numNodes=123
attr network csma802154net
attr numNodes 123
attr processid 5772
attr repetition 0
attr replication #0
attr resultdir results
attr runnumber 73
attr seedset 73
vector 503  csma802154net.dataCentricNetworkMan  RREQPacketFrequency  ETV
503	6547 43888 983 3690903 1.005 7273.066564087504 1518 0 123 3309 272483
vector 504  csma802154net.dataCentricNetworkMan  RERRPacketFrequency  ETV
504	50435 43831 983 3690903 1.005 7273.066564087504 1518 0 0 0 0
vector 505  csma802154net.dataCentricNetworkMan  DiscoveryPacketFrequency  ETV
505	94266 43831 983 3690903 1.005 7273.066564087504 1518 0 0 0 0
vector 506  csma802154net.dataCentricNetworkMan  RegisterPacketFrequency  ETV
506	138097 43831 983 3690903 1.005 7273.066564087504 1518 0 1 12 12
vector 507  csma802154net.dataCentricNetworkMan  RReplyPacketFrequency  ETV
507	181928 43849 983 3690903 1.005 7273.066564087504 1518 0 146 2091 130199
vector 508  csma802154net.dataCentricNetworkMan  AODVDataPacketFrequency  ETV
508	225777 43853 983 3690903 1.005 7273.066564087504 1518 0 136 1627 105587
vector 515  csma802154net.dataCentricNetworkMan  pendingRegistrationVector  ETV
515	280566 477 57847 1619984 43.5 55.092772497337 20 0 5 68 274
vector 514  csma802154net.dataCentricNetworkMan  pendingRREQVector  ETV
514	279167 1399 57852 1503600 43.50001 54.702296095607 49 0 1 17 17
vector 512  csma802154net.dataCentricNetworkMan  PendingDataPacketsVector  ETV
512	269630 9537 1629460 3690570 70 7273.061092145528 312 0 3 286 468
vector 526  csma802154net.fixhost[10].udpApp  "End-to-end delay"  ETV
526	283419 595 1630450 3672883 70.009316023828 7270.008356023828 13 0.006756023828 0.009956023828 0.111188309761 0.00096154278673385
vector 500  csma802154net.dataCentricNetworkMan  dataPacketE2EDelay  ETV
500	1805 4742 1630450 3690570 70.009316023828 7273.061092145528 104 0.006756023828 0.119804092219 3.89780952546 0.19934738165154
vector 522  csma802154net.fixhost[6].udpApp  "End-to-end delay"  ETV
522	281638 595 1634932 3676164 71.050372059047 7271.018764059048 13 0.016276059048 0.051652059048 0.388108767617 0.013835580377614
vector 524  csma802154net.fixhost[8].udpApp  "End-to-end delay"  ETV
524	282233 595 1635559 3677414 71.052924098766 7271.027396098765 13 0.023876098765 0.052924098766 0.408197283947 0.013867426759206
vector 529  csma802154net.fixhost[13].udpApp  "End-to-end delay"  ETV
529	284014 595 1639176 3681363 72.091436068099 7272.023204068098 13 0.020076068099 0.091436068099 0.413052885282 0.017270727440603
vector 535  csma802154net.fixhost[19].udpApp  "End-to-end delay"  ETV
535	285204 581 1640362 3681965 72.119804092219 7272.027964092219 13 0.026436092218 0.119804092219 0.515253198853 0.028422728200618
vector 525  csma802154net.fixhost[9].udpApp  "End-to-end delay"  ETV
525	282828 591 1646524 3689321 73.040364148925 7273.055124117771 13 0.033364117771 0.08914811777 0.715765686782 0.043985803082561
vector 521  csma802154net.fixhost[5].udpApp  "End-to-end delay"  ETV
521	281043 595 1648372 3686873 73.060596132998 7273.031196104548 13 0.029276104548 0.061020132993 0.529357501362 0.023298561917885
vector 530  csma802154net.fixhost[14].udpApp  "End-to-end delay"  ETV
530	284609 595 1648987 3690570 73.112292145528 7273.061092145528 13 0.031156145525 0.112292145528 0.816885891856 0.057705011086322
