file 52116 1353503644                                           
version 2
run AODVScenario_1h-0-20121004-19:09:54-592
attr configname AODVScenario_1h
attr datetime 20121004-19:09:54
attr experiment AODVScenario_1h
attr inifile omnetpp.ini
attr iterationvars ""
attr iterationvars2 $repetition=0
attr measurement ""
attr network csma802154net
attr processid 592
attr repetition 0
attr replication #0
attr resultdir results
attr runnumber 0
attr seedset 0
vector 386  csma802154net.dataCentricNetworkMan  RREQPacketFrequency  ETV
386	1739 10123 11001 918017 40.005 80.510034211876 357 0 248 9568 1518464
vector 387  csma802154net.dataCentricNetworkMan  DiscoveryPacketFrequency  ETV
387	11862 9977 11001 918017 40.005 80.510034211876 357 0 0 0 0
vector 388  csma802154net.dataCentricNetworkMan  RegisterPacketFrequency  ETV
388	21839 9977 11001 918017 40.005 80.510034211876 357 0 1 12 12
vector 389  csma802154net.dataCentricNetworkMan  RReplyPacketFrequency  ETV
389	31816 9983 11001 918017 40.005 80.510034211876 357 0 124 423 41019
vector 390  csma802154net.dataCentricNetworkMan  AODVDataPacketFrequency  ETV
390	41799 9983 11001 918017 40.005 80.510034211876 357 0 124 432 40846
vector 393  csma802154net.fixhost[1].udpApp  "End-to-end delay"  ETV
393	51782 42 716711 716711 73.316231948345 73.316231948345 1 0.316231948345 0.316231948345 0.316231948345 0.10000264515407
vector 383  csma802154net.dataCentricNetworkMan  dataPacketE2EDelay  ETV
383	1405 334 716711 890969 73.316231948345 79.679090051606 8 0.316231948345 8.92503624917 38.270998294554 244.89996515299
vector 409  csma802154net.fixhost[17].udpApp  "End-to-end delay"  ETV
409	52034 42 776476 776476 74.513452381628 74.513452381628 1 3.513452381628 3.513452381628 3.513452381628 12.344347637967
vector 401  csma802154net.fixhost[9].udpApp  "End-to-end delay"  ETV
401	51908 42 779051 779051 74.608988425786 74.608988425786 1 3.608988425786 3.608988425786 3.608988425786 13.024797457457
vector 402  csma802154net.fixhost[10].udpApp  "End-to-end delay"  ETV
402	51950 42 786729 786729 74.928689577916 74.928689577916 1 2.928689577916 2.928689577916 2.928689577916 8.5772226437938
vector 398  csma802154net.fixhost[6].udpApp  "End-to-end delay"  ETV
398	51866 42 819431 819431 76.339454156869 76.339454156869 1 6.339454156869 6.339454156869 6.339454156869 40.188679007044
vector 394  csma802154net.fixhost[2].udpApp  "End-to-end delay"  ETV
394	51824 42 821713 821713 76.960055503234 76.960055503234 1 3.960055503234 3.960055503234 3.960055503234 15.682039588694
vector 412  csma802154net.fixhost[20].udpApp  "End-to-end delay"  ETV
412	52076 40 876067 876067 78.92503624917 78.92503624917 1 8.92503624917 8.92503624917 8.92503624917 79.656272048999
vector 404  csma802154net.fixhost[12].udpApp  "End-to-end delay"  ETV
404	51992 42 890969 890969 79.679090051606 79.679090051606 1 8.679090051606 8.679090051606 8.679090051606 75.326604123886
