version 2
run AODVScenario_1f-1-20121121-14:43:42-2812
attr configname AODVScenario_1f
attr datetime 20121121-14:43:42
attr experiment AODVScenario_1f
attr inifile AODV.ini
attr iterationvars $numNodes=51
attr iterationvars2 "$numNodes=51, $repetition=0"
attr measurement $numNodes=51
attr network csma802154net
attr numNodes 51
attr processid 2812
attr repetition 0
attr replication #0
attr resultdir results
attr runnumber 1
attr seedset 1

vector 215  csma802154net.dataCentricNetworkMan  RREQPacketFrequency  ETV
vector 216  csma802154net.dataCentricNetworkMan  RERRPacketFrequency  ETV
vector 217  csma802154net.dataCentricNetworkMan  DiscoveryPacketFrequency  ETV
vector 218  csma802154net.dataCentricNetworkMan  RegisterPacketFrequency  ETV
vector 219  csma802154net.dataCentricNetworkMan  RReplyPacketFrequency  ETV
vector 220  csma802154net.dataCentricNetworkMan  AODVDataPacketFrequency  ETV
vector 227  csma802154net.dataCentricNetworkMan  pendingRegistrationVector  ETV
vector 226  csma802154net.dataCentricNetworkMan  pendingRREQVector  ETV
vector 224  csma802154net.dataCentricNetworkMan  PendingDataPacketsVector  ETV
vector 231  csma802154net.fixhost[3].udpApp  "End-to-end delay"  ETV
vector 212  csma802154net.dataCentricNetworkMan  dataPacketE2EDelay  ETV
vector 233  csma802154net.fixhost[5].udpApp  "End-to-end delay"  ETV
vector 230  csma802154net.fixhost[2].udpApp  "End-to-end delay"  ETV
vector 239  csma802154net.fixhost[11].udpApp  "End-to-end delay"  ETV
vector 238  csma802154net.fixhost[10].udpApp  "End-to-end delay"  ETV
vector 240  csma802154net.fixhost[12].udpApp  "End-to-end delay"  ETV
vector 234  csma802154net.fixhost[6].udpApp  "End-to-end delay"  ETV
vector 246  csma802154net.fixhost[18].udpApp  "End-to-end delay"  ETV
vector 235  csma802154net.fixhost[7].udpApp  "End-to-end delay"  ETV
vector 252  csma802154net.fixhost[24].udpApp  "End-to-end delay"  ETV
vector 241  csma802154net.fixhost[13].udpApp  "End-to-end delay"  ETV
212	296590	70.014396064276	0.014396064276
212	296860	70.018196093431	0.018196093431
212	297145	70.021044043419	0.021044043419
212	298783	71.023916086614	0.023916086614
212	299478	71.051972057466	0.051972057466
212	300054	71.065292145815	0.065292145815
212	301868	72.026404057846	0.026404057846
212	302528	72.058644098705	0.058644098705
212	304733	73.031516091637	0.031516091637
212	306534	73.096460162639	0.096460162639
212	306808	73.101412122033	0.101412122033
212	370061	670.013756064276	0.013756064276
212	370407	670.01752404342	0.01752404342
212	370742	670.040844093431	0.040844093431
212	372258	671.022284057467	0.022284057467
212	372543	671.028324086614	0.028324086614
212	373113	671.045492120449	0.045492120449
212	374872	672.026724057846	0.026724057846
212	375461	672.033116098706	0.033116098706
212	378796	673.046044162637	0.046044162637
212	379360	673.057532142391	0.057532142391
212	379632	673.061484123361	0.061484123361
212	442891	1270.013756064276	0.013756064276
212	443165	1270.017236093431	0.017236093431
212	443450	1270.02104404342	0.02104404342
212	444700	1271.018516057467	0.018516057467
212	445255	1271.028004086613	0.028004086613
212	445824	1271.039092120448	0.039092120448
212	447562	1272.025516057846	0.025516057846
212	448155	1272.033756098706	0.033756098706
212	451042	1273.03851612336	0.03851612336
212	451903	1273.048284162638	0.048284162638
212	452464	1273.055932142389	0.055932142389
212	516043	1870.011836064276	0.011836064276
212	516314	1870.015956093431	0.015956093431
212	516598	1870.01944404342	0.01944404342
212	517956	1871.018196057467	0.018196057467
212	518789	1871.054524118338	0.054524118338
212	519088	1871.061524145815	0.061524145815
212	520577	1872.023596057845	0.023596057845
212	521437	1872.034964098705	0.034964098705
212	523526	1873.029916091636	0.029916091636
212	524627	1873.039724122032	0.039724122032
212	525471	1873.049244162638	0.049244162638
212	588738	2470.01183604342	0.01183604342
212	589016	2470.014964064276	0.014964064276
212	589286	2470.019084093431	0.019084093431
212	590524	2471.018516057467	0.018516057467
212	591349	2471.033084118337	0.033084118337
212	591649	2471.040724145814	0.040724145814
212	593389	2472.020076057846	0.020076057846
212	593979	2472.027036098706	0.027036098706
212	596440	2473.028956091636	0.028956091636
212	597405	2473.061804122032	0.061804122032
212	598520	2473.092372162638	0.092372162638
212	661787	3070.01119604342	0.01119604342
212	662066	3070.015284064276	0.015284064276
212	662336	3070.023244093431	0.023244093431
212	663574	3071.017556057467	0.017556057467
212	664237	3071.025444086613	0.025444086613
212	664810	3071.053812120448	0.053812120448
212	666298	3072.018796057846	0.018796057846
212	667159	3072.032404098706	0.032404098706
212	669636	3073.03243612336	0.03243612336
212	670762	3073.048924162638	0.048924162638
212	671327	3073.06048414239	0.06048414239
212	734758	3670.015356043419	0.015356043419
212	735042	3670.039604064274	0.039604064274
212	735312	3670.045004093429	0.045004093429
212	736658	3671.017876057466	0.017876057466
212	737490	3671.052604118336	0.052604118336
212	737790	3671.058324145812	0.058324145812
212	739279	3672.022636057846	0.022636057846
212	740141	3672.040084098705	0.040084098705
212	742505	3673.03371612336	0.03371612336
212	743629	3673.047044142389	0.047044142389
212	744196	3673.053972162638	0.053972162638
212	807441	4270.010236064275	0.010236064275
212	807732	4270.014396043419	0.014396043419
212	808011	4270.01908409343	0.01908409343
212	809252	4271.020756057465	0.020756057465
212	810073	4271.030844118335	0.030844118335
212	810372	4271.034324145812	0.034324145812
212	812131	4272.028644057845	0.028644057845
212	813130	4272.063692098702	0.063692098702
212	816456	4273.044124162637	0.044124162637
212	817021	4273.055364142388	0.055364142388
212	817293	4273.063972123358	0.063972123358
212	880574	4870.01247604342	0.01247604342
212	880853	4870.017844064276	0.017844064276
212	881123	4870.023564093431	0.023564093431
212	882361	4871.016916057467	0.016916057467
212	883186	4871.030844118338	0.030844118338
212	883484	4871.034964145815	0.034964145815
212	884973	4872.022636057846	0.022636057846
212	885833	4872.035604098706	0.035604098706
212	888198	4873.034356123361	0.034356123361
212	889154	4873.044484142391	0.044484142391
212	891104	4873.123268162639	0.123268162639
212	954530	5470.013436043419	0.013436043419
212	954814	5470.038004064275	0.038004064275
212	955083	5470.04180409343	0.04180409343
212	956321	5471.016276057467	0.016276057467
212	956872	5471.026724086614	0.026724086614
212	957440	5471.034364120449	0.034364120449
212	959490	5472.027684057845	0.027684057845
212	959789	5472.030876098705	0.030876098705
212	961934	5473.032476091637	0.032476091637
212	963101	5473.065572122032	0.065572122032
212	963950	5473.076372162639	0.076372162639
212	1027217	6070.01215604342	0.01215604342
212	1027496	6070.017844064276	0.017844064276
212	1027766	6070.021964093431	0.021964093431
212	1029556	6071.026052057467	0.026052057467
212	1029837	6071.032764118338	0.032764118338
212	1030136	6071.037204145815	0.037204145815
212	1031730	6072.019436057844	0.019436057844
212	1032596	6072.057684098702	0.057684098702
212	1034741	6073.031196091637	0.031196091637
212	1036042	6073.068380122032	0.068380122032
212	1036897	6073.104068162639	0.104068162639
212	1100167	6670.01375604342	0.01375604342
212	1100443	6670.016244064276	0.016244064276
212	1100713	6670.023884093431	0.023884093431
212	1102057	6671.017556057465	0.017556057465
212	1102885	6671.050364118336	0.050364118336
212	1103184	6671.055764145813	0.055764145813
212	1105261	6672.030876098704	0.030876098704
212	1105528	6672.033052057845	0.033052057845
212	1107732	6673.029916091637	0.029916091637
212	1109135	6673.064924162639	0.064924162639
212	1109698	6673.073180122032	0.073180122032
212	1172998	7270.011516064276	0.011516064276
212	1173397	7270.015356043419	0.015356043419
212	1173681	7270.038924093431	0.038924093431
212	1174919	7271.017236057466	0.017236057466
212	1175744	7271.032444118337	0.032444118337
212	1176043	7271.037524145814	0.037524145814
212	1177640	7272.020716057844	0.020716057844
212	1178505	7272.054164098704	0.054164098704
212	1180978	7273.032116123361	0.032116123361
212	1181556	7273.042884142391	0.042884142391
212	1182671	7273.066204162639	0.066204162639
215	401	1.005	1
215	414	1.01	0
215	731	1.01695547562	29
215	1181	1.02195547562	35
215	1774	1.02695547562	47
215	2622	1.03195547562	33
215	3238	1.03695547562	16
215	3798	1.04195547562	21
215	4292	1.04695547562	33
215	4903	1.05195547562	40
215	5426	1.05695547562	35
215	5855	1.06195547562	32
215	6051	1.06695547562	18
215	6277	1.07195547562	15
215	6508	1.07695547562	27
215	6509	1.08195547562	0
215	6764	1.093262125069	4
215	6834	1.098262125069	0
215	7098	1.103962473988	23
215	7099	1.108962473988	0
215	7371	1.142105754603	21
215	7452	1.147105754603	7
215	7453	1.152105754603	0
215	11951	43.505	1
215	12622	43.51	27
215	14042	43.515	0
215	14681	43.52	0
215	15185	43.525	0
215	15768	43.53	0
215	16287	43.535	0
215	17130	43.54	0
215	17708	43.545	0
215	18362	43.55	0
215	18820	43.555	0
215	19481	43.56	0
215	19994	43.565	0
215	20460	43.57	0
215	21135	43.575	0
215	21780	43.58	0
215	22508	43.585	0
215	23421	43.594954494439	0
215	23789	43.599954494439	0
215	24321	43.607388231683	0
215	25112	43.612388231683	0
215	25726	43.619637934896	0
215	26220	43.624637934896	0
215	28285	43.645795657927	0
215	28664	43.650795657927	0
215	29169	43.655795657927	0
215	30749	43.67477394159	0
215	31221	43.67977394159	0
215	31906	43.68477394159	0
215	33262	43.698757918751	0
215	33573	43.703757918751	0
215	34396	43.716396025333	0
215	34934	43.721396025333	0
215	35300	43.726396025333	0
215	35914	43.731747640697	0
215	36291	43.736747640697	0
215	36972	43.742811663518	0
215	37286	43.747811663518	0
215	37423	43.752811663518	0
215	37910	43.757811663518	0
215	38381	43.762811663518	0
215	38962	43.767811663518	0
215	39342	43.772811663518	0
215	40723	43.791738505303	0
215	41036	43.796738505303	0
215	41870	43.806266326213	0
215	42223	43.811266326213	0
215	42904	43.83896863526	0
215	43089	43.84396863526	0
215	43352	43.863387369361	0
215	43353	43.868387369361	0
215	43620	43.911983897709	0
215	43621	43.916983897709	0
215	43982	44.505	23
215	44761	44.51	0
215	45302	44.515	0
215	45662	44.52	0
215	46290	44.525	0
215	46955	44.533522661873	0
215	47337	44.538522661873	0
215	47970	44.545427903846	0
215	48405	44.550427903846	0
215	48975	44.556267911746	0
215	49361	44.561267911746	0
215	49739	44.568411885518	0
215	50000	44.573411885518	0
215	50271	44.578411885518	0
215	51223	44.586821849309	0
215	51654	44.591821849309	0
215	52970	44.6039148677	0
215	53396	44.6089148677	0
215	55053	44.628613117474	0
215	55506	44.633613117474	0
215	56542	44.643579260525	0
215	56878	44.648579260525	0
215	57153	44.653579260525	0
215	58623	44.669892222741	0
215	58887	44.674892222741	0
215	59335	44.679892222741	0
215	59728	44.684892222741	0
215	60119	44.689892222741	0
215	60435	44.694892222741	0
215	60743	44.699892222741	0
215	61423	44.706275887098	0
215	61666	44.711275887098	0
215	62139	44.721427908274	0
215	62471	44.726427908274	0
215	62737	44.731427908274	0
215	63228	44.736427908274	0
215	63707	44.741427908274	0
215	64314	44.749113926427	0
215	64676	44.754113926427	0
215	64681	44.759113926427	0
215	64997	44.767058204003	0
215	65391	44.772058204003	0
215	65648	44.777058204003	0
215	65953	44.782058204003	0
215	65954	44.787058204003	0
215	66565	44.869778881683	0
215	66566	44.874778881683	0
215	67173	44.949437355319	0
215	67174	44.954437355319	0
215	67284	45.505	1
215	67351	45.51	0
215	68169	45.515665530904	21
215	68949	45.520665530904	0
215	69324	45.525665530904	0
215	69880	45.530665530904	0
215	70682	45.54230827473	0
215	71250	45.54730827473	0
215	71811	45.553314285991	0
215	72410	45.558314285991	0
215	72883	45.563314285991	0
215	73454	45.568314285991	0
215	74061	45.573314285991	0
215	74504	45.578314285991	0
215	75123	45.583314285991	0
215	75390	45.588314285991	0
215	76038	45.593314285991	0
215	76589	45.598314285991	0
215	76954	45.603314285991	0
215	77579	45.608314285991	0
215	77945	45.613314285991	0
215	78014	45.618314285991	0
215	79697	45.635476166467	0
215	80016	45.640476166467	0
215	81014	45.652300884838	0
215	81560	45.657300884838	0
215	82458	45.668302444501	0
215	82733	45.673302444501	0
215	83196	45.678302444501	0
215	83568	45.683302444501	0
215	84527	45.69499167177	0
215	85010	45.69999167177	0
215	85139	45.70499167177	0
215	85662	45.712307294372	0
215	85923	45.717307294372	0
215	86191	45.722307294372	0
215	86561	45.727307294372	0
215	86826	45.734351921003	0
215	86827	45.739351921003	0
215	87020	45.748275479041	0
215	87491	45.753275479041	0
215	87492	45.758275479041	0
215	88240	45.77730436076	0
215	88505	45.78230436076	0
215	88506	45.78730436076	0
215	88869	46.505	1
215	89079	46.51	15
215	89671	46.515	0
215	90349	46.52	0
215	90989	46.525	0
215	91502	46.53	0
215	91894	46.535	0
215	92538	46.54	0
215	93035	46.545	0
215	93583	46.55	0
215	94011	46.555	0
215	94350	46.561656515725	0
215	94615	46.566656515725	0
215	95083	46.571656515725	0
215	95275	46.576656515725	0
215	95777	46.582210568676	0
215	96084	46.587210568676	0
215	96221	46.592210568676	0
215	96585	46.597210568676	0
215	97661	46.614909544954	0
215	97869	46.619909544954	0
215	98077	46.624909544954	0
215	98551	46.632172382819	0
215	98924	46.637172382819	0
215	99120	46.642172382819	0
215	99585	46.648755468643	0
215	99913	46.653755468643	0
215	101207	46.673389907268	0
215	101665	46.678389907268	0
215	102237	46.683976531587	0
215	102483	46.688976531587	0
215	102619	46.693976531587	0
215	103076	46.700395500187	0
215	103332	46.705395500187	0
215	103599	46.710395500187	0
215	104099	46.71733653332	0
215	104100	46.72233653332	0
215	104613	46.758266908848	0
215	104614	46.763266908848	0
215	104724	47.505	1
215	104737	47.51	0
215	106106	47.516970511992	32
215	107181	47.521970511992	0
215	107948	47.526970511992	0
215	108866	47.531970511992	0
215	109396	47.536970511992	0
215	109987	47.541970511992	0
215	110871	47.546970511992	0
215	111383	47.551970511992	0
215	111807	47.556970511992	0
215	112597	47.561970511992	0
215	113121	47.566970511992	0
215	114041	47.572731795346	0
215	114650	47.577731795346	0
215	115201	47.582731795346	0
215	117026	47.599446348494	0
215	117707	47.604446348494	0
215	118386	47.612799551069	0
215	118960	47.617799551069	0
215	119647	47.622799551069	0
215	120103	47.627799551069	0
215	121135	47.639986430455	0
215	121690	47.644986430455	0
215	123972	47.666300274608	0
215	124444	47.671300274608	0
215	125169	47.676606265997	0
215	125625	47.681606265997	0
215	126239	47.687192897592	0
215	126755	47.692192897592	0
215	127230	47.697192897592	0
215	127886	47.702192897592	0
215	128641	47.708613660121	0
215	129055	47.713613660121	0
215	129398	47.718613660121	0
215	130656	47.728391562762	0
215	130947	47.733391562762	0
215	131432	47.738391562762	0
215	132274	47.746567837042	0
215	132743	47.751567837042	0
215	133300	47.756567837042	0
215	133857	47.761567837042	0
215	134489	47.766567837042	0
215	135398	47.773891547388	0
215	135961	47.778891547388	0
215	136492	47.783891547388	0
215	136940	47.788891547388	0
215	137399	47.793891547388	0
215	138324	47.805411524307	0
215	138812	47.810411524307	0
215	139148	47.815411524307	0
215	139558	47.820411524307	0
215	140021	47.825411524307	0
215	140515	47.830411524307	0
215	141158	47.851288419125	0
215	141606	47.856288419125	0
215	141872	47.861288419125	0
215	142150	47.870682001231	0
215	142548	47.875682001231	0
215	142860	47.880682001231	0
215	143471	47.894466432025	0
215	143755	47.899466432025	0
215	144188	47.904466432025	0
215	144402	47.909466432025	0
215	144403	47.914466432025	0
215	144676	47.931712114681	0
215	144677	47.936712114681	0
215	144787	48.505	1
215	144800	48.51	0
215	145337	48.517026634428	12
215	145748	48.522026634428	0
215	146018	48.527026634428	0
215	146345	48.532026634428	0
215	146634	48.537026634428	0
215	146959	48.542026634428	0
215	148001	48.560819458905	0
215	148217	48.565819458905	0
215	148865	48.572655830571	0
215	149157	48.577655830571	0
215	149500	48.582655830571	0
215	150552	48.594363485786	0
215	150949	48.599363485786	0
215	151277	48.604363485786	0
215	151595	48.609363485786	0
215	152111	48.614363485786	0
215	152429	48.619363485786	0
215	152967	48.626531825807	0
215	153028	48.631531825807	0
215	153759	48.651969855908	0
215	154023	48.656969855908	0
215	154549	48.665195035976	0
215	154550	48.670195035976	0
215	154819	48.692955856062	0
215	154820	48.697955856062	0
215	155077	48.722558404026	0
215	155078	48.727558404026	0
215	155351	48.772903859426	0
215	155597	48.777903859426	0
215	155598	48.782903859426	0
215	156113	48.829503887506	0
215	156114	48.834503887506	0
215	156317	49.505	1
215	156780	49.51	25
215	157796	49.515	0
215	158463	49.52	0
215	159211	49.525709948667	0
215	159938	49.530709948667	0
215	160236	49.535709948667	0
215	160776	49.540709948667	0
215	161253	49.545709948667	0
215	161736	49.550709948667	0
215	162387	49.558222328436	0
215	162996	49.563222328436	0
215	163412	49.568222328436	0
215	164025	49.573222328436	0
215	164679	49.578222328436	0
215	165178	49.583222328436	0
215	165815	49.588222328436	0
215	167224	49.606655127535	0
215	167829	49.611655127535	0
215	168432	49.616655127535	0
215	169037	49.621655127535	0
215	169490	49.626655127535	0
215	170090	49.631655127535	0
215	170660	49.636655127535	0
215	171272	49.641655127535	0
215	172075	49.648760563543	0
215	172482	49.653760563543	0
215	172883	49.658760563543	0
215	173641	49.664979553698	0
215	173973	49.669979553698	0
215	176117	49.685841522249	0
215	176502	49.690841522249	0
215	176889	49.695841522249	0
215	177547	49.70160633546	0
215	178186	49.70660633546	0
215	178847	49.71160633546	0
215	179112	49.71660633546	0
215	180139	49.730390388487	0
215	180451	49.735390388487	0
215	181043	49.741013969701	0
215	181520	49.746013969701	0
215	181853	49.751013969701	0
215	182124	49.756013969701	0
215	182465	49.761013969701	0
215	182996	49.766013969701	0
215	183603	49.771013969701	0
215	184002	49.776013969701	0
215	184006	49.781013969701	0
215	184850	49.793430016539	0
215	185242	49.798430016539	0
215	185735	49.804262365065	0
215	186015	49.809262365065	0
215	186019	49.814262365065	0
215	186478	49.821638677279	0
215	186617	49.826638677279	0
215	186832	49.831726330989	0
215	186833	49.836726330989	0
215	186971	50.505	1
215	187032	50.51	0
215	187832	50.515069566174	17
215	188452	50.520069566174	0
215	188880	50.525069566174	0
215	189242	50.530069566174	0
215	189743	50.535069566174	0
215	190200	50.540069566174	0
215	190702	50.545069566174	0
215	191130	50.550069566174	0
215	191616	50.555069566174	0
215	191741	50.560069566174	0
215	192357	50.565562703736	0
215	192641	50.570562703736	0
215	192927	50.575562703736	0
215	193401	50.582638716166	0
215	193557	50.587638716166	0
215	194040	50.592638716166	0
215	194428	50.597638716166	0
215	194945	50.604795801616	0
215	195151	50.609795801616	0
215	195839	50.61960287506	0
215	196401	50.62460287506	0
215	196815	50.62960287506	0
215	197688	50.637422867347	0
215	197960	50.642422867347	0
215	198229	50.647422867347	0
215	198829	50.656262881816	0
215	199180	50.661262881816	0
215	199494	50.666262881816	0
215	200073	50.685759784806	0
215	200352	50.690759784806	0
215	201204	50.705054742292	0
215	201482	50.710054742292	0
215	201702	50.715054742292	0
215	201948	50.720054742292	0
215	202265	50.74408690876	0
215	202532	50.74908690876	0
215	202734	50.75408690876	0
215	203253	50.789659713303	0
215	203254	50.794659713303	0
215	203385	51.505	1
215	203452	51.51	0
215	204457	51.515845593462	28
215	205335	51.520845593462	0
215	206215	51.525845593462	0
215	206934	51.530845593462	0
215	207420	51.535845593462	0
215	207865	51.540845593462	0
215	208617	51.545845593462	0
215	209486	51.550845593462	0
215	210168	51.555845593462	0
215	210628	51.560845593462	0
215	211130	51.565889564993	0
215	211902	51.570889564993	0
215	212385	51.575889564993	0
215	212997	51.580889564993	0
215	213675	51.585889564993	0
215	214052	51.590889564993	0
215	214786	51.595889564993	0
215	215397	51.600889564993	0
215	215887	51.605889564993	0
215	216453	51.610889564993	0
215	216856	51.615889564993	0
215	217621	51.624548498796	0
215	218088	51.629548498796	0
215	220041	51.648229573514	0
215	220580	51.653229573514	0
215	220795	51.658229573514	0
215	221514	51.666360493924	0
215	221918	51.671360493924	0
215	223875	51.687298662864	0
215	224470	51.692298662864	0
215	224888	51.697298662864	0
215	225597	51.702594825172	0
215	226075	51.707594825172	0
215	226679	51.712594825172	0
215	227234	51.717594825172	0
215	227806	51.722594825172	0
215	228297	51.727594825172	0
215	228775	51.732594825172	0
215	229167	51.737594825172	0
215	229649	51.743892327391	0
215	230083	51.748892327391	0
215	230455	51.753892327391	0
215	230857	51.758892327391	0
215	231068	51.763892327391	0
215	231565	51.769001219565	0
215	232022	51.774001219565	0
215	232222	51.779001219565	0
215	232559	51.785396313136	0
215	232629	51.790396313136	0
215	233038	51.80028204936	0
215	233468	51.80528204936	0
215	233942	51.81028204936	0
215	234031	51.81528204936	0
215	234836	51.825472514581	0
215	234840	51.830472514581	0
215	235134	51.847599689004	0
215	235660	51.852599689004	0
215	235956	51.857599689004	0
215	236237	51.862599689004	0
215	236728	51.870634638024	0
215	236811	51.875634638024	0
215	237002	52.505	1
215	237804	52.51	23
215	238497	52.515	0
215	239096	52.52	0
215	239763	52.525	0
215	240335	52.531795643678	0
215	240687	52.536795643678	0
215	241245	52.541795643678	0
215	241951	52.546795643678	0
215	242524	52.551795643678	0
215	243166	52.556795643678	0
215	243953	52.561795643678	0
215	244606	52.566795643678	0
215	245366	52.571795643678	0
215	245974	52.576795643678	0
215	246520	52.581795643678	0
215	247317	52.586795643678	0
215	247647	52.591795643678	0
215	248734	52.603022766395	0
215	249090	52.608022766395	0
215	249496	52.613022766395	0
215	249801	52.618022766395	0
215	250354	52.623022766395	0
215	251033	52.628022766395	0
215	251562	52.633022766395	0
215	252015	52.638022766395	0
215	252507	52.643022766395	0
215	252837	52.648022766395	0
215	253137	52.653746442499	0
215	253738	52.658746442499	0
215	254158	52.663746442499	0
215	254566	52.668746442499	0
215	254891	52.673746442499	0
215	255814	52.685525992215	0
215	256290	52.690525992215	0
215	256934	52.695525992215	0
215	257669	52.700525992215	0
215	257900	52.705525992215	0
215	257966	52.710525992215	0
215	258518	52.715728004993	0
215	259056	52.720728004993	0
215	259546	52.725728004993	0
215	259943	52.730728004993	0
215	260220	52.735728004993	0
215	260221	52.740728004993	0
215	260284	52.75294672944	0
215	260717	52.75794672944	0
215	260798	52.76294672944	0
215	261344	52.777063304489	0
215	261345	52.782063304489	0
215	261634	52.802847332796	0
215	261635	52.807847332796	0
215	261843	53.505	1
215	262131	53.51	14
215	262889	53.515	0
215	263630	53.52	0
215	264102	53.525	0
215	264951	53.53	0
215	265235	53.535	0
215	265724	53.54	0
215	266214	53.547713572824	0
215	266940	53.552713572824	0
215	267306	53.557713572824	0
215	267884	53.562713572824	0
215	268172	53.567713572824	0
215	268717	53.572713572824	0
215	269327	53.577713572824	0
215	270576	53.59122815684	0
215	271010	53.59622815684	0
215	271590	53.60122815684	0
215	271928	53.60622815684	0
215	272426	53.61122815684	0
215	272832	53.61622815684	0
215	273305	53.62122815684	0
215	273519	53.62622815684	0
215	274204	53.63122815684	0
215	274604	53.63622815684	0
215	275770	53.646997699148	0
215	276516	53.651997699148	0
215	276860	53.656997699148	0
215	277473	53.66412441989	0
215	278101	53.66912441989	0
215	278501	53.67412441989	0
215	278707	53.67912441989	0
215	279550	53.692615219036	0
215	279752	53.697615219036	0
215	280291	53.704972871221	0
215	280292	53.709972871221	0
215	280820	53.779063663906	0
215	280821	53.784063663906	0
215	281009	54.505	1
215	281328	54.51	10
215	282300	54.515	0
215	282859	54.52	0
215	283293	54.525	0
215	283631	54.53	0
215	283829	54.535	0
215	284251	54.54	0
215	284856	54.548335529505	0
215	285428	54.553335529505	0
215	286030	54.558335529505	0
215	286427	54.563335529505	0
215	286900	54.568335529505	0
215	287349	54.573335529505	0
215	287867	54.578335529505	0
215	288085	54.583335529505	0
215	288774	54.590160639984	0
215	289158	54.595160639984	0
215	289826	54.606840606182	0
215	290018	54.611840606182	0
215	290213	54.616840606182	0
215	291229	54.634733884733	0
215	291472	54.639733884733	0
215	291717	54.644733884733	0
215	292293	54.670895285501	0
215	292761	54.675895285501	0
215	293043	54.680895285501	0
215	293243	54.685895285501	0
215	293532	54.703799299498	0
215	293734	54.708799299498	0
215	293829	54.713799299498	0
215	294091	54.718799299498	0
215	294092	54.723799299498	0
215	296188	70.00501	0
215	296249	70.01001	0
215	296735	70.015916031876	0
215	297059	70.020916031876	0
215	297296	70.025916031876	0
215	297297	70.030916031876	0
215	297551	71.00501	0
215	297752	71.01001	0
215	298042	71.015606026041	0
215	298440	71.020606026041	0
215	299052	71.025606026041	0
215	299056	71.030606026041	0
215	299614	71.053484105655	0
215	299908	71.058484105655	0
215	300184	71.070292145815	0
215	300185	71.075292145815	0
215	300500	72.00501	0
215	300867	72.01001	0
215	301138	72.01501	0
215	301405	72.02001	0
215	301682	72.02501	0
215	302075	72.03001	0
215	302076	72.03501	0
215	302372	72.055684082795	0
215	302662	72.060684082795	0
215	302663	72.065684082795	0
215	303053	73.00501	0
215	303406	73.01001	0
215	303634	73.01501	0
215	303915	73.02001	0
215	304188	73.02501	0
215	304535	73.03001	0
215	304873	73.03501	0
215	304874	73.04001	0
215	305549	73.059772097377	0
215	305550	73.064772097377	0
215	305872	73.087820124842	0
215	306386	73.092820124842	0
215	306660	73.097820124842	0
215	306938	73.102820124842	0
215	306939	73.107820124842	0
215	369537	670.00501	0
215	369720	670.01001	0
215	370209	670.015276031876	0
215	370612	670.020276031876	0
215	370613	670.025276031876	0
215	370881	670.045844093431	0
215	370882	670.050844093431	0
215	371276	671.00501	0
215	371280	671.01001	0
215	371836	671.016886026041	0
215	372174	671.021886026041	0
215	372399	671.026886026041	0
215	372696	671.031886026041	0
215	372757	671.036886026041	0
215	372967	671.042532105655	0
215	373243	671.047532105655	0
215	373244	671.052532105655	0
215	373644	672.00501	0
215	373923	672.01001	0
215	374203	672.01501	0
215	374467	672.02001	0
215	374735	672.02501	0
215	375305	672.03001	0
215	375595	672.03501	0
215	375596	672.04001	0
215	375844	673.00501	0
215	376130	673.01001	0
215	376570	673.01501	0
215	376851	673.02001	0
215	377181	673.02501	0
215	377455	673.03001	0
215	377942	673.03501	0
215	378357	673.04001	0
215	378708	673.04501	0
215	378922	673.05001	0
215	379215	673.05501	0
215	379494	673.06001	0
215	379772	673.06501	0
215	379773	673.07001	0
215	442493	1270.00501	0
215	442681	1270.01001	0
215	443036	1270.01501	0
215	443364	1270.02001	0
215	443601	1270.02501	0
215	443602	1270.03001	0
215	443996	1271.00501	0
215	444283	1271.01001	0
215	444553	1271.01501	0
215	444835	1271.02001	0
215	445105	1271.02501	0
215	445408	1271.03001	0
215	445678	1271.03501	0
215	445954	1271.04001	0
215	445955	1271.04501	0
215	446212	1272.00501	0
215	446416	1272.01001	0
215	446698	1272.015276019133	0
215	446972	1272.020276019133	0
215	447497	1272.025276019133	0
215	447999	1272.030276019133	0
215	448289	1272.035276019133	0
215	448290	1272.040276019133	0
215	448938	1273.00501	0
215	449234	1273.01001	0
215	449525	1273.01501	0
215	449806	1273.02001	0
215	450136	1273.02501	0
215	450534	1273.03001	0
215	450894	1273.03501	0
215	451238	1273.04001	0
215	451752	1273.04501	0
215	452086	1273.05001	0
215	452376	1273.05501	0
215	452595	1273.06001	0
215	452871	1273.06501	0
215	515645	1870.00501	0
215	515915	1870.01001	0
215	516246	1870.01501	0
215	516746	1870.02001	0
215	516750	1870.02501	0
215	517144	1871.00501	0
215	517434	1871.01001	0
215	517701	1871.01501	0
215	518094	1871.02001	0
215	518095	1871.02501	0
215	518639	1871.047444073931	0
215	518646	1871.052444073931	0
215	518945	1871.059524118338	0
215	519218	1871.064524118338	0
215	519219	1871.069524118338	0
215	519619	1872.00501	0
215	519901	1872.01001	0
215	520111	1872.01501	0
215	520236	1872.02001	0
215	520723	1872.025116042338	0
215	521047	1872.030116042338	0
215	521438	1872.035116042338	0
215	521572	1872.040116042338	0
215	521820	1873.00501	0
215	522252	1873.01001	0
215	522546	1873.01501	0
215	522827	1873.02001	0
215	523100	1873.02501	0
215	523579	1873.03001	0
215	524139	1873.03501	0
215	524738	1873.04001	0
215	525239	1873.04501	0
215	525597	1873.05001	0
215	525598	1873.05501	0
215	588318	2470.00501	0
215	588591	2470.01001	0
215	589017	2470.01501	0
215	589425	2470.02001	0
215	589426	2470.02501	0
215	589738	2471.00501	0
215	590107	2471.01001	0
215	590298	2471.01501	0
215	590659	2471.02001	0
215	590929	2471.02501	0
215	591203	2471.03001	0
215	591502	2471.03501	0
215	591563	2471.04001	0
215	591779	2471.045724145814	0
215	591780	2471.050724145814	0
215	592180	2472.00501	0
215	592465	2472.01001	0
215	592865	2472.01501	0
215	593324	2472.02001	0
215	593826	2472.02501	0
215	594113	2472.03001	0
215	594114	2472.03501	0
215	594762	2473.00501	0
215	595061	2473.01001	0
215	595352	2473.01501	0
215	595687	2473.02001	0
215	596047	2473.02501	0
215	596580	2473.03001	0
215	596581	2473.03501	0
215	596972	2473.056644097376	0
215	597317	2473.061644097376	0
215	597535	2473.066644097376	0
215	597536	2473.071644097376	0
215	598079	2473.085012124841	0
215	598375	2473.090012124841	0
215	598646	2473.095012124841	0
215	598647	2473.100012124841	0
215	661367	3070.00501	0
215	661700	3070.01001	0
215	661998	3070.01501	0
215	662208	3070.02001	0
215	662475	3070.02501	0
215	662476	3070.03001	0
215	662788	3071.00501	0
215	663160	3071.01001	0
215	663430	3071.01501	0
215	663769	3071.02001	0
215	664099	3071.02501	0
215	664393	3071.03001	0
215	664394	3071.03501	0
215	664937	3071.054372105654	0
215	664941	3071.059372105654	0
215	665344	3072.00501	0
215	665683	3072.01001	0
215	666154	3072.01501	0
215	666444	3072.02001	0
215	666711	3072.02501	0
215	667006	3072.03001	0
215	667293	3072.03501	0
215	667294	3072.04001	0
215	667684	3073.00501	0
215	667980	3073.01001	0
215	668325	3073.01501	0
215	668552	3073.02001	0
215	668948	3073.02501	0