version 2
run AODVScenario_1g-0-20121102-10:51:54-3472
attr configname AODVScenario_1g
attr datetime 20121102-10:51:54
attr experiment AODVScenario_1g
attr inifile AODV.ini
attr iterationvars ""
attr iterationvars2 $repetition=0
attr measurement ""
attr network csma802154net
attr processid 3472
attr repetition 0
attr replication #0
attr resultdir results
attr runnumber 0
attr seedset 0

vector 511  csma802154net.dataCentricNetworkMan  RREQPacketFrequency  ETV
vector 512  csma802154net.dataCentricNetworkMan  RERRPacketFrequency  ETV
vector 513  csma802154net.dataCentricNetworkMan  DiscoveryPacketFrequency  ETV
vector 514  csma802154net.dataCentricNetworkMan  RegisterPacketFrequency  ETV
vector 515  csma802154net.dataCentricNetworkMan  RReplyPacketFrequency  ETV
vector 516  csma802154net.dataCentricNetworkMan  AODVDataPacketFrequency  ETV
vector 521  csma802154net.dataCentricNetworkMan  pendingRegistrationVector  ETV
vector 520  csma802154net.dataCentricNetworkMan  pendingRREQVector  ETV
vector 517  csma802154net.dataCentricNetworkMan  AODVDataLineBreakVector  ETV
vector 518  csma802154net.dataCentricNetworkMan  PendingDataPacketsVector  ETV
vector 528  csma802154net.fixhost[6].udpApp  "End-to-end delay"  ETV
vector 508  csma802154net.dataCentricNetworkMan  dataPacketE2EDelay  ETV
vector 541  csma802154net.fixhost[19].udpApp  "End-to-end delay"  ETV
vector 542  csma802154net.fixhost[20].udpApp  "End-to-end delay"  ETV
vector 531  csma802154net.fixhost[9].udpApp  "End-to-end delay"  ETV
vector 539  csma802154net.fixhost[17].udpApp  "End-to-end delay"  ETV
vector 534  csma802154net.fixhost[12].udpApp  "End-to-end delay"  ETV
vector 532  csma802154net.fixhost[10].udpApp  "End-to-end delay"  ETV
vector 538  csma802154net.fixhost[16].udpApp  "End-to-end delay"  ETV
vector 533  csma802154net.fixhost[11].udpApp  "End-to-end delay"  ETV
vector 525  csma802154net.fixhost[3].udpApp  "End-to-end delay"  ETV
vector 524  csma802154net.fixhost[2].udpApp  "End-to-end delay"  ETV
vector 523  csma802154net.fixhost[1].udpApp  "End-to-end delay"  ETV
vector 510  csma802154net.dataCentricNetworkMan  modulesDownVector  ETV
508	650402	70.011836043988	0.011836043988
508	651034	70.035444059791	0.035444059791
508	651630	70.038924086338	0.038924086338
508	654663	71.017236046516	0.017236046516
508	655889	71.04560409724	0.04560409724
508	656541	71.047844079244	0.047844079244
508	661264	72.028996075233	0.028996075233
508	663094	72.054804119647	0.054804119647
508	663721	72.060204129805	0.060204129805
508	669704	73.040364104097	0.040364104097
508	671030	73.057684096854	0.057684096854
508	671687	73.101636069329	0.101636069329
508	826545	670.011516059794	0.011516059794
508	827159	670.015604043991	0.015604043991
508	827786	670.019404086342	0.019404086342
508	831196	671.023564046515	0.023564046515
508	832090	671.026084079243	0.026084079243
508	832695	671.049692097239	0.049692097239
508	837612	672.029276103189	0.029276103189
508	839852	672.057652075233	0.057652075233
508	841644	672.084420119647	0.084420119647
508	846502	673.027716069329	0.027716069329
508	848558	673.041004104097	0.041004104097
508	849885	673.058252096854	0.058252096854
508	1004747	1270.013756059795	0.013756059795
508	1005348	1270.017236086343	0.017236086343
508	1005959	1270.028972043991	0.028972043991
508	1009359	1271.02263609724	0.02263609724
508	1010015	1271.028324079244	0.028324079244
508	1010647	1271.031812046516	0.031812046516
508	1014769	1272.025796075233	0.025796075233
508	1017753	1272.055764103189	0.055764103189
508	1018377	1272.059852119647	0.059852119647
508	1022780	1273.028356069328	0.028356069328
508	1025641	1273.040972096854	0.040972096854
508	1026304	1273.045340104096	0.045340104096
508	1181266	1870.013116059795	0.013116059795
508	1181850	1870.017556086343	0.017556086343
508	1182446	1870.02321204399	0.02321204399
508	1185755	1871.022316097239	0.022316097239
508	1186396	1871.025836079243	0.025836079243
508	1187011	1871.036612046515	0.036612046515
508	1191019	1872.035076075231	0.035076075231
508	1193054	1872.064404103187	0.064404103187
508	1194240	1872.088652119644	0.088652119644
508	1200024	1873.033084069327	0.033084069327
508	1201581	1873.043244099676	0.043244099676
508	1202373	1873.053844096852	0.053844096852
508	1358871	2470.011836043991	0.011836043991
508	1359482	2470.017844059795	0.017844059795
508	1360062	2470.023564086343	0.023564086343
508	1363351	2471.020396097238	0.020396097238
508	1363988	2471.026084079242	0.026084079242
508	1364603	2471.031172046515	0.031172046515
508	1368981	2472.031836103189	0.031836103189
508	1370736	2472.039124119647	0.039124119647
508	1371333	2472.046380075233	0.046380075233
508	1375594	2473.023556069329	0.023556069329
508	1377453	2473.051284096854	0.051284096854
508	1379308	2473.061092104096	0.061092104096
508	1534133	3070.016636059794	0.016636059794
508	1534718	3070.021076086342	0.021076086342
508	1535314	3070.02417204399	0.02417204399
508	1538619	3071.020396097239	0.020396097239
508	1539845	3071.048164079244	0.048164079244
508	1540460	3071.051652046516	0.051652046516
508	1545382	3072.036316103189	0.036316103189
508	1546560	3072.041404075233	0.041404075233
508	1547155	3072.047940119647	0.047940119647
508	1551424	3073.026756069329	0.026756069329
508	1554128	3073.057932096853	0.057932096853
508	1555409	3073.088860104095	0.088860104095
508	1710359	3670.012156059795	0.012156059795
508	1710958	3670.01688404399	0.01688404399
508	1711565	3670.021644086342	0.021644086342
508	1714870	3671.024524046516	0.024524046516
508	1715487	3671.026476079244	0.026476079244
508	1716065	3671.02864409724	0.02864409724
508	1721269	3672.039516119646	0.039516119646
508	1721862	3672.041652075232	0.041652075232
508	1723636	3672.062164103188	0.062164103188
508	1730584	3673.193612069066	0.193612069066
508	1732818	3673.199828076309	0.199828076309
508	1779765	3673.335325616746	0.335325616746
508	1937950	4270.013436059795	0.013436059795
508	1938535	4270.018516086342	0.018516086342
508	1939131	4270.03153204399	0.03153204399
508	1943112	4271.029316101917	0.029316101917
508	1943731	4271.035116051193	0.035116051193
508	1944347	4271.060996083922	0.060996083922
508	1949641	4272.039196105474	0.039196105474
508	1950242	4272.041116121931	0.041116121931
508	1951414	4272.146932077515	0.146932077515
508	1957213	4273.032476087474	0.032476087474
508	1958291	4273.035924107449	0.035924107449
508	1959557	4273.050284114693	0.050284114693
508	2114398	4870.011836043991	0.011836043991
508	2115002	4870.014324059795	0.014324059795
508	2115583	4870.017804086343	0.017804086343
508	2118965	4871.022956051194	0.022956051194
508	2120441	4871.032444083921	0.032444083921
508	2121027	4871.056692101917	0.056692101917
508	2125115	4872.025156077517	0.025156077517
508	2127479	4872.055124105473	0.055124105473
508	2128082	4872.057612121931	0.057612121931
508	2132845	4873.032796087475	0.032796087475
508	2135906	4873.060172107451	0.060172107451
508	2136544	4873.066532114694	0.066532114694
508	2291788	5470.012476043991	0.012476043991
508	2292414	5470.037364059795	0.037364059795
508	2293004	5470.042124086343	0.042124086343
508	2296451	5471.020076051192	0.020076051192
508	2297698	5471.027644083921	0.027644083921
508	2298291	5471.031484101917	0.031484101917
508	2302186	5472.024836077517	0.024836077517
508	2304247	5472.05793212193	0.05793212193
508	2305475	5472.069628105472	0.069628105472
508	2311995	5473.032084087476	0.032084087476
508	2312171	5473.032476107451	0.032476107451
508	2313739	5473.042532114695	0.042532114695
508	2469242	6070.015356059795	0.015356059795
508	2469836	6070.019796086343	0.019796086343
508	2470438	6070.021756043991	0.021756043991
508	2474175	6071.020716051194	0.020716051194
508	2475430	6071.049724083922	0.049724083922
508	2476023	6071.052532101918	0.052532101918
508	2481234	6072.029596105472	0.029596105472
508	2482302	6072.033084077516	0.033084077516
508	2482907	6072.037452121929	0.037452121929
508	2489438	6073.035676107452	0.035676107452
508	2490873	6073.041892114694	0.041892114694
508	2491660	6073.060244087476	0.060244087476
508	2647592	6670.013756059793	0.013756059793
508	2648186	6670.017876086341	0.017876086341
508	2648791	6670.02705204399	0.02705204399
508	2652863	6671.024516101918	0.024516101918
508	2653498	6671.028572051194	0.028572051194
508	2654128	6671.038452083922	0.038452083922
508	2658863	6672.027076077518	0.027076077518
508	2660082	6672.035676105474	0.035676105474
508	2661869	6672.057364121932	0.057364121932
508	2667752	6673.034964107451	0.034964107451
508	2668967	6673.039084114694	0.039084114694
508	2670221	6673.047692087475	0.047692087475
508	2825761	7270.010876043991	0.010876043991
508	2827520	7270.060972059795	0.060972059795
508	2828103	7270.066372086343	0.066372086343
508	2832390	7271.027756051193	0.027756051193
508	2833271	7271.051004101917	0.051004101917
508	2835382	7271.07870008392	0.07870008392
508	2891830	7272.346561399482	0.346561399482
508	2895611	7272.380865443895	0.380865443895
508	2896354	7272.385625454053	0.385625454053
508	2903285	7273.045556114692	0.045556114692
508	2904906	7273.075356087475	0.075356087475
508	2906621	7273.087692107448	0.087692107448
510	1161405	1800	1
510	1161412	1800	2
510	1161416	1800	3
510	1161420	1800	4
510	1161429	1800	5
510	1161437	1800	6
510	1161494	1800	7
510	1690499	3600	6
510	1690500	3600	7
510	1690506	3600	6
510	1690507	3600	7
510	1690510	3600	6
510	1690511	3600	7
510	1690514	3600	6
510	1690519	3600	7
510	1690523	3600	6
510	1690531	3600	5
510	1690532	3600	6
510	1690534	3600	7
510	1690538	3600	8
510	1690588	3600	7
510	2271633	5400	6
510	2271640	5400	5
510	2271644	5400	4
510	2271646	5400	5
510	2271648	5400	6
510	2271652	5400	5
510	2271665	5400	4
510	2271667	5400	3
510	2271671	5400	2
510	2271672	5400	3
510	2805881	7200	4
510	2805884	7200	5
510	2805889	7200	6
510	2805894	7200	5
510	2805896	7200	4
510	2805901	7200	5
510	2805909	7200	6
510	2805915	7200	7
510	2805920	7200	6
511	1005	1.005	1
511	1146	1.01	0
511	2117	1.016456446436	150
511	4479	1.021456446436	112
511	7740	1.026456446436	118
511	11506	1.031456446436	119
511	15904	1.036456446436	81
511	18684	1.041456446436	96
511	21892	1.046456446436	108
511	24203	1.051456446436	146
511	26540	1.056456446436	72
511	28808	1.061456446436	61
511	31184	1.066456446436	109
511	33193	1.071456446436	119
511	34857	1.076456446436	111
511	36463	1.081456446436	70
511	38263	1.086456446436	110
511	39522	1.091456446436	86
511	41284	1.096456446436	134
511	42267	1.101456446436	56
511	43049	1.106456446436	77
511	43053	1.111456446436	0
511	44416	1.118638893926	110
511	44891	1.123638893926	41
511	45516	1.128638893926	71
511	45520	1.133638893926	0
511	46603	1.141899270928	84
511	47697	1.146899270928	142
511	48920	1.151899270928	69
511	50001	1.156899270928	69
511	51162	1.161899270928	125
511	52552	1.166899270928	114
511	53380	1.171899270928	58
511	53867	1.176899270928	71
511	53868	1.181899270928	0
511	54821	1.190211172359	82
511	54828	1.195211172359	0
511	55333	1.202109294049	49
511	55334	1.207109294049	0
511	56450	1.2253251239	117
511	56451	1.2303251239	0
511	57628	3.005	0
511	58252	3.01	1
511	58262	3.015	0
511	59282	3.022341120634	73
511	60718	3.027341120634	119
511	64594	3.032341120634	139
511	67731	3.037341120634	126
511	71372	3.042341120634	76
511	75760	3.047341120634	103
511	78697	3.052341120634	123
511	81308	3.057341120634	62
511	83616	3.062341120634	146
511	85406	3.067341120634	106
511	87513	3.072341120634	171
511	88753	3.077341120634	84
511	89471	3.082341120634	58
511	90967	3.087341120634	102
511	92975	3.092341120634	90
511	94084	3.097341120634	140
511	95602	3.102341120634	81
511	95609	3.107341120634	0
511	96676	3.114774544825	106
511	97475	3.119774544825	53
511	98866	3.124774544825	140
511	100048	3.129774544825	95
511	101084	3.134774544825	27
511	102067	3.139774544825	25
511	102528	3.144774544825	39
511	103087	3.149774544825	58
511	103831	3.154774544825	68
511	105564	3.159774544825	155
511	106835	3.164774544825	81
511	107258	3.169774544825	0
511	107679	3.17550938562	57
511	108207	3.18050938562	53
511	108348	3.18550938562	0
511	108982	3.192016580311	73
511	109878	3.197016580311	0
511	110085	3.202016580311	0
511	110558	3.209487949823	42
511	110693	3.214487949823	0
511	111030	3.220911683687	41
511	111165	3.225911683687	0
511	111637	3.232158353385	68
511	111638	3.237158353385	0
511	112179	3.270885848066	55
511	112180	3.275885848066	0
511	113045	4.005	0
511	113639	4.01	0
511	114506	5.005	0
511	115102	5.01	0
511	115983	6.005	0
511	116589	6.01	1
511	116596	6.015	0
511	117662	6.023383544966	109
511	119830	6.028383544966	134
511	123400	6.033383544966	101
511	126673	6.038383544966	105
511	130577	6.043383544966	64
511	134195	6.048383544966	124
511	136842	6.053383544966	130
511	139535	6.058383544966	134
511	141876	6.063383544966	63
511	143689	6.068383544966	131
511	145717	6.073383544966	132
511	147371	6.078383544966	107
511	148607	6.083383544966	83
511	150498	6.088383544966	154
511	152338	6.093383544966	144
511	153862	6.098383544966	68
511	155210	6.103383544966	50
511	157013	6.108383544966	142
511	157152	6.113383544966	0
511	158499	6.11892662017	131
511	159732	6.12392662017	70
511	161570	6.12892662017	67
511	162891	6.13392662017	125
511	163032	6.13892662017	0
511	164035	6.14476967208	94
511	164985	6.14976967208	72
511	165538	6.15476967208	26
511	166489	6.15976967208	81
511	167345	6.16476967208	59
511	168085	6.16976967208	66
511	168277	6.17476967208	0
511	169743	6.18536229017	130
511	169744	6.19036229017	0
511	170980	6.202323495854	72
511	170981	6.207323495854	0
511	171942	6.224180360891	51
511	172097	6.229180360891	0
511	174348	7.005	0
511	174961	7.01	1
511	175102	7.015	0
511	175538	7.020668783216	46
511	178043	7.025668783216	240
511	180760	7.030668783216	107
511	184594	7.035668783216	165
511	188473	7.040668783216	75
511	191512	7.045668783216	100
511	194448	7.050668783216	98
511	196808	7.055668783216	99
511	199237	7.060668783216	142
511	201579	7.065668783216	155
511	203583	7.070668783216	151
511	204488	7.075668783216	72
511	206367	7.080668783216	113
511	208459	7.085668783216	77
511	210055	7.090668783216	134
511	211740	7.095668783216	142
511	213037	7.100668783216	116
511	214708	7.105668783216	148
511	215399	7.110668783216	51
511	217326	7.115668783216	124
511	217477	7.120668783216	0
511	218413	7.125668783216	79
511	219563	7.130668783216	25
511	220614	7.135668783216	100
511	221754	7.140668783216	89
511	222794	7.145668783216	99
511	223809	7.150668783216	95
511	225730	7.155668783216	168
511	225879	7.160668783216	0
511	227032	7.168213232534	125
511	227033	7.173213232534	0
511	228442	7.182223609284	43
511	229171	7.187223609284	65
511	229684	7.192223609284	0
511	230225	7.202041688645	55
511	230226	7.207041688645	0
511	231177	7.218408024392	84
511	231178	7.223408024392	0
511	232055	8.005	0
511	232661	8.01	0
511	233677	9.005	0
511	234342	9.01	0
511	234972	9.015	1
511	234973	9.02	0
511	235807	9.03098563263	71
511	237582	9.03598563263	109
511	240316	9.04098563263	138
511	243828	9.04598563263	87
511	247037	9.05098563263	107
511	250567	9.05598563263	87
511	253631	9.06098563263	80
511	256047	9.06598563263	77
511	258983	9.07098563263	135
511	260842	9.07598563263	139
511	262691	9.08098563263	112
511	265177	9.08598563263	132
511	267184	9.09098563263	120
511	268836	9.09598563263	139
511	270205	9.10098563263	81
511	271090	9.10598563263	66
511	272835	9.11098563263	62
511	274504	9.11598563263	108
511	276588	9.12098563263	138
511	278177	9.12598563263	97
511	280421	9.13098563263	108
511	281286	9.13598563263	0
511	283279	9.142047393594	177
511	283865	9.147047393594	62
511	284531	9.152047393594	53
511	285750	9.157047393594	138
511	286145	9.162047393594	52
511	286737	9.167047393594	39
511	287194	9.172047393594	65
511	287195	9.177047393594	0
511	287726	9.1859091369	53
511	287861	9.1909091369	0
511	288298	9.196348765162	61
511	288299	9.201348765162	0
511	288905	9.214239971135	68
511	289040	9.219239971135	0
511	289527	9.225415815969	71
511	289528	9.230415815969	0
511	290416	10.005	0
511	291067	10.01	0
511	291731	10.015	0
511	292350	10.02	1
511	292764	10.025	46
511	293983	10.03	78
511	296222	10.035	143
511	299355	10.04	113
511	303258	10.045	108
511	307077	10.05	93
511	310218	10.055	79
511	312887	10.06	99
511	315543	10.065	153
511	317402	10.07	84
511	319919	10.075	159
511	321465	10.08	87
511	323706	10.085	132
511	325450	10.09	95
511	327087	10.095	156
511	328303	10.1	48
511	330061	10.105	130
511	331298	10.11	137
511	332668	10.115	44
511	334331	10.12	109
511	336230	10.125	102
511	337610	10.13	111
511	338433	10.135	84
511	339057	10.14	0
511	340507	10.147143549798	124
511	340645	10.152143549798	0
511	342025	10.15722702135	35
511	342826	10.16222702135	44
511	343465	10.16722702135	73
511	344446	10.17222702135	116
511	344447	10.17722702135	0
511	345593	10.18697973441	123
511	345594	10.19197973441	0
511	346804	10.212578823796	135
511	346943	10.217578823796	0
511	347380	10.222651490898	61
511	347381	10.227651490898	0
511	347952	10.245783015196	61
511	347953	10.250783015196	0
511	348663	10.267147206193	62
511	349150	10.272147206193	71
511	349151	10.277147206193	0
511	350026	11.005	0
511	350027	11.01	0
511	350624	11.031286029729	1
511	350765	11.036286029729	0
511	351475	11.041783337469	80
511	352839	11.046783337469	103
511	355262	11.051783337469	31
511	359210	11.056783337469	142
511	361675	11.061783337469	79
511	365032	11.066783337469	80
511	367827	11.071783337469	133
511	370294	11.076783337469	135
511	373298	11.081783337469	134
511	375829	11.086783337469	88
511	378183	11.091783337469	105
511	380065	11.096783337469	124
511	382230	11.101783337469	113
511	383533	11.106783337469	96
511	385646	11.111783337469	114
511	387553	11.116783337469	95
511	389228	11.121783337469	164
511	390899	11.126783337469	104
511	391307	11.131783337469	0
511	392200	11.136866449326	65
511	392497	11.141866449326	33
511	392499	11.146866449326	0
511	394952	11.157978941418	94
511	395731	11.162978941418	72
511	396959	11.167978941418	81
511	398135	11.172978941418	124
511	399137	11.177978941418	94
511	400553	11.182978941418	146
511	400951	11.187978941418	27
511	401582	11.192978941418	73
511	402208	11.197978941418	72
511	402209	11.202978941418	0
511	402764	11.211790744253	31
511	403209	11.216790744253	62
511	403812	11.221790744253	68
511	403947	11.226790744253	0
511	404419	11.232818798613	68
511	404420	11.237818798613	0
511	405001	11.2485507373	63
511	405002	11.2535507373	0
511	406038	12.005	0
511	406820	12.01	0
511	407300	12.015	1
511	407301	12.02	0
511	408381	12.02917327971	113
511	410840	12.03417327971	69
511	414295	12.03917327971	122
511	418271	12.04417327971	77
511	421753	12.04917327971	149
511	424629	12.05417327971	88
511	427933	12.05917327971	90
511	430107	12.06417327971	143
511	431883	12.06917327971	67
511	433865	12.07417327971	107
511	435993	12.07917327971	91
511	437510	12.08417327971	136
511	438769	12.08917327971	89
511	440113	12.09417327971	28
511	441810	12.09917327971	117
511	443286	12.10417327971	157
511	443771	12.10917327971	5
511	443910	12.11417327971	0
511	444970	12.120030572476	105
511	445464	12.125030572476	45
511	447373	12.130030572476	163
511	448739	12.135030572476	62
511	449533	12.140030572476	74
511	450732	12.145030572476	132
511	451946	12.150030572476	136
511	453110	12.155030572476	53
511	453859	12.160030572476	42
511	454846	12.165030572476	118
511	454981	12.170030572476	0
511	455606	12.175159376841	71
511	456796	12.180159376841	68
511	457228	12.185159376841	59
511	457883	12.190159376841	0
511	458541	12.195159376841	10
511	458545	12.200159376841	0
511	459778	12.20764751675	141
511	460399	12.21264751675	71
511	460535	12.21764751675	0
511	462243	12.240487528114	132
511	462247	12.245487528114	0
511	462868	12.253969222191	71
511	463494	12.258969222191	72
511	463495	12.263969222191	0
511	464204	13.005	0
511	465147	13.01	0
511	465744	13.015	1
511	465885	13.02	0
511	466605	13.026467774958	46
511	468351	13.031467774958	83
511	470090	13.036467774958	113
511	473142	13.041467774958	163
511	477077	13.046467774958	144
511	480327	13.051467774958	110
511	483585	13.056467774958	120
511	486900	13.061467774958	118
511	489550	13.066467774958	134
511	491921	13.071467774958	100
511	493966	13.076467774958	128
511	496037	13.081467774958	78
511	497909	13.086467774958	93
511	498629	13.091467774958	62
511	501244	13.096467774958	137
511	501983	13.101467774958	64
511	503599	13.106467774958	135
511	504185	13.111467774958	60
511	504949	13.116467774958	73
511	505959	13.121467774958	122
511	506670	13.126467774958	62
511	507816	13.131467774958	147
511	509369	13.136467774958	149
511	509373	13.141467774958	0
511	510803	13.149484966059	115
511	511667	13.154484966059	60
511	512387	13.159484966059	64
511	513762	13.164484966059	139
511	513898	13.169484966059	0
511	515177	13.175815175439	68
511	516580	13.180815175439	72
511	517035	13.185815175439	36
511	517638	13.190815175439	0
511	518828	13.195815175439	65
511	519717	13.200815175439	63
511	520059	13.205815175439	0
511	520615	13.214581973986	58
511	520620	13.219581973986	0
511	524957	13.367686033945	1
511	525667	13.372686033945	84
511	527967	13.377686033945	133
511	531270	13.382686033945	187
511	534443	13.387686033945	107
511	537859	13.392686033945	101
511	541150	13.397686033945	106
511	543954	13.402686033945	91
511	546454	13.407686033945	122
511	548092	13.412686033945	46
511	550051	13.417686033945	159
511	552049	13.422686033945	124
511	553315	13.427686033945	88
511	554703	13.432686033945	53
511	556608	13.437686033945	123
511	557791	13.442686033945	67
511	559473	13.447686033945	111
511	560698	13.452686033945	134
511	561340	13.457686033945	46
511	562352	13.462686033945	120
511	564077	13.467686033945	62
511	564571	13.472686033945	40
511	564706	13.477686033945	0
511	565972	13.484033589215	115
511	566697	13.489033589215	65
511	567576	13.494033589215	92
511	568578	13.499033589215	62
511	569158	13.504033589215	62
511	570115	13.509033589215	112
511	570574	13.514033589215	0
511	571072	13.519210187063	45
511	572722	13.524210187063	138
511	572723	13.529210187063	0
511	574022	13.54053496261	74
511	574739	13.54553496261	62
511	575391	13.55053496261	0
511	576378	13.55553496261	0
511	577096	13.56053496261	53
511	577097	13.56553496261	0
511	577718	13.605944571925	71
511	577719	13.610944571925	0
511	578321	14.005	0
511	578649	14.01	0
511	579284	14.034796026402	0
511	579285	14.039796026402	0
511	579883	14.081486042045	1
511	580024	14.086486042045	0
511	581116	14.092605282209	109
511	583082	14.097605282209	144
511	585828	14.102605282209	131
511	589320	14.107605282209	58
511	593856	14.112605282209	119
511	597061	14.117605282209	33
511	599708	14.122605282209	163
511	601684	14.127605282209	69
511	604961	14.132605282209	150
511	607364	14.137605282209	109
511	609208	14.142605282209	112
511	611108	14.147605282209	73
511	612822	14.152605282209	147
511	614587	14.157605282209	105
511	615409	14.162605282209	51
511	616514	14.167605282209	27
511	617450	14.172605282209	37
511	618538	14.177605282209	84
511	619833	14.182605282209	95
511	620332	14.187605282209	45
511	621460	14.192605282209	144
511	622059	14.197605282209	64
511	622744	14.202605282209	31
511	623993	14.207605282209	74
511	623994	14.212605282209	0
511	625717	14.222711529175	156
511	626339	14.227711529175	71
511	627227	14.232711529175	97
511	627823	14.237711529175	66
511	628466	14.242711529175	0
511	628741	14.247711529175	0
511	629664	14.252711529175	37
511	630401	14.257711529175	0
511	630767	14.262711529175	14
511	630768	14.267711529175	0
511	631259	14.277154219284	45
511	631395	14.282154219284	0
511	631912	14.287715555196	0
511	631913	14.292715555196	0
511	633178	14.32595399034	64
511	633179	14.33095399034	0
511	649239	70.00501	0
511	649838	70.01001	0
511	650741	70.01501	0
511	652840	71.00501	0
511	653463	71.01001	0
511	654078	71.01501	0
511	654968	71.02001	0
511	656337	71.046804067934	0
511	656850	71.051804067934	0
511	657707	72.00501	0
511	658315	72.01001	0
511	658928	72.01501	0
511	659510	72.02001	0
511	660370	72.02501	0
511	661566	72.03001	0
511	661567	72.03501	0
511	662184	72.04569209303	0
511	662782	72.05069209303	0
511	663405	72.05569209303	0
511	664983	73.00501	0
511	665634	73.01001	0
511	666385	73.01501	0
511	666994	73.02001	0
511	667645	73.02501	0
511	668113	73.03001	0
511	668713	73.03501	0
511	669495	73.04001	0
511	670485	73.04501	0
511	670689	73.05001	0
511	825656	670.00501	0
511	826255	670.01001	0
511	826988	670.01501	0
511	828822	671.00501	0
511	829613	671.01001	0
511	829751	671.01501	0
511	830367	671.02003603786	0
511	831760	671.02503603786	0
511	832402	671.03003603786	0
511	833871	672.00501	0
511	834476	672.01001	0
511	835089	672.01501	0
511	835674	672.02001	0
511	836405	672.02501	0
511	837927	672.03001	0
511	838076	672.03501	0
511	840154	672.059172066281	0
511	840155	672.064172066281	0
511	841955	672.085940103087	0
511	841956	672.090940103087	0
511	842564	673.00501	0
511	843552	673.01001	0
511	844172	673.01501	0
511	844777	673.02001	0
511	845566	673.02501	0
511	846967	673.03001	0
511	847567	673.03501	0
511	848349	673.04001	0
511	848895	673.04501	0
511	849678	673.058172080547	0
511	850205	673.063172080547	0
511	1003858	1270.00501	0
511	1004448	1270.01001	0
511	1005055	1270.01501	0
511	1007198	1271.00501	0
511	1007818	1271.01001	0
511	1008430	1271.01501	0
511	1009060	1271.02001	0
511	1009677	1271.02501	0
511	1011504	1272.00501	0
511	1012246	1272.01001	0
511	1013023	1272.01501	0
511	1013611	1272.02001	0
511	1014601	1272.02501	0
511	1015071	1272.03001	0
511	1016868	1272.052844076786	0
511	1018071	1272.057844076786	0
511	1018688	1272.062844076786	0
511	1019633	1273.00501	0
511	1020284	1273.01001	0
511	1020904	1273.01501	0
511	1021039	1273.02001	0
511	1022164	1273.025116043207	0
511	1023396	1273.030116043207	0
511	1024179	1273.035116043207	0
511	1025433	1273.040116043207	0
511	1026095	1273.045116043207	0
511	1180255	1870.00501	0
511	1180975	1870.01001	0
511	1181566	1870.01501	0
511	1183659	1871.00501	0
511	1184263	1871.01001	0
511	1184858	1871.01501	0
511	1185470	1871.02001	0
511	1186200	1871.02501	0
511	1188142	1872.00501	0
511	1188732	1872.01001	0
511	1188733	1872.01501	0
511	1189892	1872.026766043799	0
511	1190725	1872.031766043799	0
511	1191313	1872.036766043799	0
511	1192580	1872.060844076784	0
511	1193358	1872.065844076784	0
511	1194538	1872.089212103084	0
511	1194542	1872.094212103084	0
511	1195465	1873.00501	0
511	1196096	1873.01001	0
511	1196700	1873.01501	0
511	1197291	1873.02001	0
511	1197884	1873.02501	0
511	1199228	1873.03001	0
511	1200613	1873.03501	0
511	1201247	1873.04001	0
511	1201905	1873.04501	0
511	1357993	2470.00501	0
511	1358573	2470.01001	0
511	1359198	2470.01501	0
511	1361247	2471.00501	0
511	1361854	2471.01001	0
511	1362455	2471.01501	0
511	1363200	2471.02001	0
511	1363793	2471.02501	0
511	1365443	2472.00501	0
511	1365869	2472.01001	0
511	1366921	2472.015276030316	0
511	1367487	2472.020276030316	0
511	1368205	2472.025276030316	0
511	1368675	2472.030276030316	0
511	1369863	2472.035276030316	0
511	1371038	2472.040276030316	0
511	1371173	2472.045276030316	0
511	1372549	2473.00501	0
511	1373186	2473.01001	0
511	1373793	2473.01501	0
511	1375078	2473.02001	0
511	1375900	2473.02501	0
511	1377118	2473.048364064766	0
511	1378174	2473.053364064766	0
511	1378974	2473.058364064766	0
511	1379632	2473.063364064766	0
511	1533268	3070.00501	0
511	1533272	3070.01001	0
511	1534266	3070.016876029892	0
511	1535020	3070.021876029892	0
511	1536361	3071.00501	0
511	1536853	3071.01001	0
511	1537729	3071.01501	0
511	1538469	3071.02001	0
511	1539504	3071.02501	0
511	1541432	3072.00501	0
511	1542181	3072.01001	0
511	1542182	3072.01501	0
511	1543344	3072.0245260438	0
511	1543921	3072.0295260438	0
511	1544665	3072.0345260438	0
511	1546265	3072.0395260438	0
511	1546854	3072.0445260438	0
511	1548050	3073.00501	0
511	1549012	3073.01001	0
511	1549616	3073.01501	0
511	1550204	3073.02001	0
511	1551100	3073.02501	0
511	1551730	3073.03001	0
511	1553038	3073.053164064765	0
511	1554264	3073.058164064765	0
511	1554441	3073.063164064765	0
511	1555733	3073.090380093694	0
511	1555734	3073.095380093694	0
511	1709493	3670.00501	0
511	1710077	3670.01001	0
511	1710662	3670.01501	0
511	1712744	3671.00501	0
511	1713347	3671.01001	0
511	1713354	3671.01501	0
511	1714079	3671.02131603786	0
511	1715295	3671.02631603786	0
511	1716371	3671.03131603786	0
511	1717051	3672.00501	0
511	1717645	3672.01001	0
511	1717940	3672.01501	0
511	1718404	3672.0203660438	0
511	1718971	3672.0253660438	0
511	1719684	3672.0303660438	0
511	1720394	3672.0353660438	0
511	1721573	3672.0403660438	0
511	1722155	3672.0453660438	0
511	1723941	3672.06336409303	0
511	1723942	3672.06836409303	0
511	1724860	3673.00501	0
511	1725491	3673.01001	0
511	1726225	3673.01501	0
511	1726372	3673.02001	0
511	1728647	3673.182626029313	1
511	1729370	3673.187626029313	0
511	1730386	3673.192626029313	44
511	1731881	3673.197626029313	0
511	1734571	3673.202626029313	96
511	1736996	3673.207626029313	59
511	1740259	3673.212626029313	147
511	1743858	3673.217626029313	80
511	1747210	3673.222626029313	54
511	1750956	3673.227626029313	54
511	1754117	3673.232626029313	131
511	1756514	3673.237626029313	120
511	1758488	3673.242626029313	119
511	1760342	3673.247626029313	121
511	1762172	3673.252626029313	97
511	1763708	3673.257626029313	149
511	1765058	3673.262626029313	73
511	1766391	3673.267626029313	139
511	1767177	3673.272626029313	0
511	1769129	3673.277647944606	205
511	1770187	3673.282647944606	81
511	1770666	3673.287647944606	44
511	1771556	3673.292647944606	0
511	1772702	3673.297647944606	60
511	1773569	3673.302647944606	64
511	1774752	3673.307647944606	29
511	1775219	3673.312647944606	0
511	1776266	3673.317647944606	67
511	1777375	3673.322647944606	53
511	1778412	3673.327647944606	76
511	1779449	3673.332647944606	0
511	1780204	3673.337647944606	0
511	1781152	3673.343199684287	113
511	1781658	3673.348199684287	50
511	1781659	3673.353199684287	0
511	1782158	3673.366442582277	48
511	1782159	3673.371442582277	0
511	1782753	3673.387112295259	67
511	1782754	3673.392112295259	0
511	1783333	3673.406608556048	64
511	1783334	3673.411608556048	0
511	1937085	4270.00501	0
511	1937663	4270.01001	0
511	1938248	4270.01501	0
511	1940358	4271.00501	0
511	1940359	4271.01001	0
511	1941629	4271.01815601042	0