file 253440 1353539780                                          
version 2
run AODVScenario_1f-39-20121121-14:52:25-1860
attr configname AODVScenario_1f
attr datetime 20121121-14:52:25
attr experiment AODVScenario_1f
attr inifile AODV.ini
attr iterationvars $numNodes=89
attr iterationvars2 "$numNodes=89, $repetition=0"
attr measurement $numNodes=89
attr network csma802154net
attr numNodes 89
attr processid 1860
attr repetition 0
attr replication #0
attr resultdir results
attr runnumber 39
attr seedset 39
vector 367  csma802154net.dataCentricNetworkMan  RREQPacketFrequency  ETV
367	8510 37496 705 2288705 1.005 7273.069052092497 1323 0 124 2089 138945
vector 368  csma802154net.dataCentricNetworkMan  RERRPacketFrequency  ETV
368	46006 37454 705 2288705 1.005 7273.069052092497 1323 0 0 0 0
vector 369  csma802154net.dataCentricNetworkMan  DiscoveryPacketFrequency  ETV
369	83460 37454 705 2288705 1.005 7273.069052092497 1323 0 0 0 0
vector 370  csma802154net.dataCentricNetworkMan  RegisterPacketFrequency  ETV
370	120914 37454 705 2288705 1.005 7273.069052092497 1323 0 1 12 12
vector 371  csma802154net.dataCentricNetworkMan  RReplyPacketFrequency  ETV
371	158368 37468 705 2288705 1.005 7273.069052092497 1323 0 104 1537 59135
vector 372  csma802154net.dataCentricNetworkMan  AODVDataPacketFrequency  ETV
372	195836 37470 705 2288705 1.005 7273.069052092497 1323 0 101 1329 47539
vector 379  csma802154net.dataCentricNetworkMan  pendingRegistrationVector  ETV
379	246393 550 34307 655785 43.5 54.5 23 0 1 12 12
vector 378  csma802154net.dataCentricNetworkMan  pendingRREQVector  ETV
378	245257 1136 34312 663785 43.50001 54.533574131896 41 0 1 16 16
vector 376  csma802154net.dataCentricNetworkMan  PendingDataPacketsVector  ETV
376	233306 11951 750828 2288491 70 7273.063652135404 390 0 3 455 871
vector 393  csma802154net.fixhost[13].udpApp  "End-to-end delay"  ETV
393	250491 593 752055 2272589 70.012476042033 7270.011516042034 13 0.010876042035 0.015996042035 0.17338854645 0.0023376480646242
vector 364  csma802154net.dataCentricNetworkMan  dataPacketE2EDelay  ETV
364	2013 6497 752055 2288491 70.012476042033 7273.063652135404 143 0.010876042035 0.115988135538 5.021897234612 0.22688674454673
vector 403  csma802154net.fixhost[23].udpApp  "End-to-end delay"  ETV
403	252254 593 752483 2273017 70.016596059373 7270.015636059374 13 0.014996059375 0.019796059375 0.231428771867 0.0041478286498444
vector 404  csma802154net.fixhost[24].udpApp  "End-to-end delay"  ETV
404	252847 593 752898 2273431 70.021356078654 7270.019116078655 13 0.019116078655 0.023596078656 0.284349022519 0.0062448673390492
vector 383  csma802154net.fixhost[3].udpApp  "End-to-end delay"  ETV
383	246943 593 755502 2275946 71.021356075919 7271.020716075919 13 0.020076075918 0.057684130253 0.374381149938 0.012475589307697
vector 385  csma802154net.fixhost[5].udpApp  "End-to-end delay"  ETV
385	248129 583 756396 2278328 71.046564090511 7271.062988090511 13 0.02167609051 0.062988090511 0.535781176633 0.024541098667354
vector 394  csma802154net.fixhost[14].udpApp  "End-to-end delay"  ETV
394	251084 587 757765 2277875 71.06305212537 7271.060172125369 13 0.034996152033 0.079052125369 0.658749709788 0.035448496057347
vector 389  csma802154net.fixhost[9].udpApp  "End-to-end delay"  ETV
389	249305 593 761059 2280713 72.026404067598 7272.021676067598 13 0.018476067598 0.054812067599 0.387132878781 0.013575893571209
vector 391  csma802154net.fixhost[11].udpApp  "End-to-end delay"  ETV
391	249898 593 761540 2282505 72.028636101878 7272.031444101878 13 0.028316101879 0.065220101879 0.46612532442 0.017800788304181
vector 396  csma802154net.fixhost[16].udpApp  "End-to-end delay"  ETV
396	251671 583 762928 2283455 72.050212135538 7272.040364135539 13 0.040364135539 0.115988135538 0.783709762008 0.052021820590134
vector 384  csma802154net.fixhost[4].udpApp  "End-to-end delay"  ETV
384	247536 593 766101 2286626 73.026756087075 7273.024516087075 13 0.024196087075 0.032196087073 0.345909131967 0.009255617567518
vector 387  csma802154net.fixhost[7].udpApp  "End-to-end delay"  ETV
387	248712 593 769099 2288491 73.088860135403 7273.063652135404 13 0.035244135401 0.088860135403 0.780941760241 0.049037096427774
