file 213775 1353539998                                          
version 2
run AODVScenario_1f-6-20121121-14:44:35-432
attr configname AODVScenario_1f
attr datetime 20121121-14:44:35
attr experiment AODVScenario_1f
attr inifile AODV.ini
attr iterationvars $numNodes=56
attr iterationvars2 "$numNodes=56, $repetition=0"
attr measurement $numNodes=56
attr network csma802154net
attr numNodes 56
attr processid 432
attr repetition 0
attr replication #0
attr resultdir results
attr runnumber 6
attr seedset 6
vector 235  csma802154net.dataCentricNetworkMan  RREQPacketFrequency  ETV
235	8422 30893 450 1293742 1.005 7273.073372121104 1115 0 63 747 26549
vector 236  csma802154net.dataCentricNetworkMan  RERRPacketFrequency  ETV
236	39315 30868 450 1293742 1.005 7273.073372121104 1115 0 0 0 0
vector 237  csma802154net.dataCentricNetworkMan  DiscoveryPacketFrequency  ETV
237	70183 30868 450 1293742 1.005 7273.073372121104 1115 0 0 0 0
vector 238  csma802154net.dataCentricNetworkMan  RegisterPacketFrequency  ETV
238	101051 30868 450 1293742 1.005 7273.073372121104 1115 0 1 12 12
vector 239  csma802154net.dataCentricNetworkMan  RReplyPacketFrequency  ETV
239	131919 30880 450 1293742 1.005 7273.073372121104 1115 0 56 925 19169
vector 240  csma802154net.dataCentricNetworkMan  AODVDataPacketFrequency  ETV
240	162799 30884 450 1293742 1.005 7273.073372121104 1115 0 51 1083 15747
vector 247  csma802154net.dataCentricNetworkMan  pendingRegistrationVector  ETV
247	206812 549 13582 284554 43.5 54.76324361212 23 0 2 24 36
vector 246  csma802154net.dataCentricNetworkMan  pendingRREQVector  ETV
246	205501 1311 13587 264462 43.50001 54.563999465417 47 0 1 12 12
vector 244  csma802154net.dataCentricNetworkMan  PendingDataPacketsVector  ETV
244	193683 11818 291051 1293590 70 7273.067172133877 390 0 3 455 871
vector 254  csma802154net.fixhost[6].udpApp  "End-to-end delay"  ETV
254	208533 586 291844 1280973 70.014396040002 7270.014396040001 13 0.011836040002 0.017596040001 0.184908520023 0.0026570441213038
vector 232  csma802154net.dataCentricNetworkMan  dataPacketE2EDelay  ETV
232	2008 6414 291844 1293590 70.014396040002 7273.067172133877 143 0.011836040002 0.097460146457 5.975131321425 0.30147243998127
vector 265  csma802154net.fixhost[17].udpApp  "End-to-end delay"  ETV
265	212033 586 292849 1281923 70.033796087766 7270.028356087766 13 0.025156087767 0.034044087765 0.383309140962 0.011421679011115
vector 276  csma802154net.fixhost[28].udpApp  "End-to-end delay"  ETV
276	213205 570 293146 1282282 70.046884091867 7270.054492091869 13 0.02039609187 0.054492091869 0.501973194301 0.02191778011976
vector 252  csma802154net.fixhost[4].udpApp  "End-to-end delay"  ETV
252	207361 586 295309 1284424 71.026364082378 7271.022596082377 13 0.022596082377 0.040052082378 0.391709233796 0.012098199144185
vector 256  csma802154net.fixhost[8].udpApp  "End-to-end delay"  ETV
256	209703 578 295886 1285001 71.03400411125 7271.02959611125 13 0.02959611125 0.064364142541 0.568181633995 0.026612471502394
vector 253  csma802154net.fixhost[5].udpApp  "End-to-end delay"  ETV
253	207947 586 298545 1288247 72.040116106706 7272.035884106707 13 0.031476106707 0.093268106707 0.570229485421 0.028056582270006
vector 261  csma802154net.fixhost[13].udpApp  "End-to-end delay"  ETV
261	210861 586 299500 1288549 72.062444121116 7272.038764121115 13 0.030516121116 0.068452121116 0.611629574497 0.030789706251225
vector 262  csma802154net.fixhost[14].udpApp  "End-to-end delay"  ETV
262	211447 586 300453 1289440 72.097460146457 7272.063684146456 13 0.041604146456 0.097460146457 0.837837937665 0.05809049111317
vector 255  csma802154net.fixhost[7].udpApp  "End-to-end delay"  ETV
255	209119 584 302390 1291375 73.024836083188 7273.026436083187 13 0.023236083189 0.06372413231 0.458525179688 0.018841495832722
vector 266  csma802154net.fixhost[18].udpApp  "End-to-end delay"  ETV
266	212619 586 304181 1293590 73.044772133879 7273.067172133877 13 0.039404133879 0.096148133878 0.875893791597 0.062802829573019
vector 260  csma802154net.fixhost[12].udpApp  "End-to-end delay"  ETV
260	210281 580 304496 1292979 73.050460124851 7273.043884124848 13 0.035316124848 0.06717212485 0.59093362948 0.028184161042375
