file 240357 1353539616                                          
version 2
run AODVScenario_1f-25-20121121-14:48:36-7948
attr configname AODVScenario_1f
attr datetime 20121121-14:48:36
attr experiment AODVScenario_1f
attr inifile AODV.ini
attr iterationvars $numNodes=75
attr iterationvars2 "$numNodes=75, $repetition=0"
attr measurement $numNodes=75
attr network csma802154net
attr numNodes 75
attr processid 7948
attr repetition 0
attr replication #0
attr resultdir results
attr runnumber 25
attr seedset 25
vector 311  csma802154net.dataCentricNetworkMan  RREQPacketFrequency  ETV
311	8489 35303 593 1869705 1.005 7273.061044127962 1244 0 78 1287 56927
vector 312  csma802154net.dataCentricNetworkMan  RERRPacketFrequency  ETV
312	43792 35268 593 1869705 1.005 7273.061044127962 1244 0 0 0 0
vector 313  csma802154net.dataCentricNetworkMan  DiscoveryPacketFrequency  ETV
313	79060 35268 593 1869705 1.005 7273.061044127962 1244 0 0 0 0
vector 314  csma802154net.dataCentricNetworkMan  RegisterPacketFrequency  ETV
314	114328 35268 593 1869705 1.005 7273.061044127962 1244 0 1 12 12
vector 315  csma802154net.dataCentricNetworkMan  RReplyPacketFrequency  ETV
315	149596 35280 593 1869705 1.005 7273.061044127962 1244 0 79 1292 39552
vector 316  csma802154net.dataCentricNetworkMan  AODVDataPacketFrequency  ETV
316	184876 35285 593 1869705 1.005 7273.061044127962 1244 0 78 1191 32165
vector 323  csma802154net.dataCentricNetworkMan  pendingRegistrationVector  ETV
323	233328 552 23453 564133 43.5 54.797703505444 23 0 2 26 40
vector 322  csma802154net.dataCentricNetworkMan  pendingRREQVector  ETV
322	232101 1227 23458 533221 43.50001 54.583188747239 44 0 1 16 16
vector 320  csma802154net.dataCentricNetworkMan  PendingDataPacketsVector  ETV
320	220161 11940 571480 1869515 70 7273.053124171412 390 0 3 455 871
vector 325  csma802154net.fixhost[1].udpApp  "End-to-end delay"  ETV
325	233880 583 572546 1856042 70.014716036301 7270.012796036301 13 0.011196036301 0.0150360363 0.172748471909 0.0023155327497529
vector 308  csma802154net.dataCentricNetworkMan  dataPacketE2EDelay  ETV
308	2012 6477 572546 1869515 70.014716036301 7273.053124171412 143 0.011196036301 0.099028141859 5.278210969157 0.25107121658814
vector 326  csma802154net.fixhost[2].udpApp  "End-to-end delay"  ETV
326	234463 591 572915 1856411 70.018836060447 7270.017236060446 13 0.014996060446 0.020436060446 0.227908785805 0.0040235176805434
vector 330  csma802154net.fixhost[6].udpApp  "End-to-end delay"  ETV
330	236228 591 573691 1857187 70.028676095862 7270.026756095862 13 0.023236095863 0.028676095862 0.342069246211 0.0090284280310182
vector 336  csma802154net.fixhost[12].udpApp  "End-to-end delay"  ETV
336	237408 591 575801 1859298 71.020076077813 7271.024556077812 13 0.015636051759 0.024556077812 0.263748881294 0.0054657360299252
vector 340  csma802154net.fixhost[16].udpApp  "End-to-end delay"  ETV
340	238584 591 576196 1859694 71.024196101083 7271.029636101082 13 0.022244074198 0.047524074198 0.390229179654 0.012409906976369
vector 328  csma802154net.fixhost[4].udpApp  "End-to-end delay"  ETV
328	235054 583 579673 1862969 72.034116080556 7272.03563613702 13 0.024516080554 0.04068413702 0.396717273078 0.012488893952165
vector 329  csma802154net.fixhost[5].udpApp  "End-to-end delay"  ETV
329	235637 591 580077 1863791 72.036564107253 7272.048076157597 13 0.033044107253 0.067812135485 0.645021708588 0.034137866695215
vector 332  csma802154net.fixhost[8].udpApp  "End-to-end delay"  ETV
332	236819 589 581256 1864589 72.069732143574 7272.059484177922 13 0.042212143574 0.088860143575 0.834006052799 0.055559889498705
vector 337  csma802154net.fixhost[13].udpApp  "End-to-end delay"  ETV
337	237999 585 583961 1867518 73.02995608584 7273.03151611407 13 0.02451608584 0.055412085839 0.450637426462 0.016603917934118
vector 343  csma802154net.fixhost[19].udpApp  "End-to-end delay"  ETV
343	239175 591 585254 1868717 73.065292113545 7273.045804141776 13 0.033436113546 0.073788113543 0.687509810518 0.038499697705964
vector 345  csma802154net.fixhost[21].udpApp  "End-to-end delay"  ETV
345	239766 591 586525 1869515 73.099028141859 7273.053124171412 13 0.047396198922 0.099028141859 0.867614132839 0.060537829334368
