file 237965 1353539663                                          
version 2
run AODVScenario_1f-29-20121121-14:49:39-4892
attr configname AODVScenario_1f
attr datetime 20121121-14:49:39
attr experiment AODVScenario_1f
attr inifile AODV.ini
attr iterationvars $numNodes=79
attr iterationvars2 "$numNodes=79, $repetition=0"
attr measurement $numNodes=79
attr network csma802154net
attr numNodes 79
attr processid 4892
attr repetition 0
attr replication #0
attr resultdir results
attr runnumber 29
attr seedset 29
vector 327  csma802154net.dataCentricNetworkMan  RREQPacketFrequency  ETV
327	8519 34910 625 1966151 1.005 7273.05001 1239 0 91 1563 82287
vector 328  csma802154net.dataCentricNetworkMan  RERRPacketFrequency  ETV
328	43429 34874 625 1966151 1.005 7273.05001 1239 0 0 0 0
vector 329  csma802154net.dataCentricNetworkMan  DiscoveryPacketFrequency  ETV
329	78303 34874 625 1966151 1.005 7273.05001 1239 0 0 0 0
vector 330  csma802154net.dataCentricNetworkMan  RegisterPacketFrequency  ETV
330	113177 34874 625 1966151 1.005 7273.05001 1239 0 1 12 12
vector 331  csma802154net.dataCentricNetworkMan  RReplyPacketFrequency  ETV
331	148051 34886 625 1966151 1.005 7273.05001 1239 0 86 1265 41069
vector 332  csma802154net.dataCentricNetworkMan  AODVDataPacketFrequency  ETV
332	182937 34891 625 1966151 1.005 7273.05001 1239 0 67 1203 32519
vector 339  csma802154net.dataCentricNetworkMan  pendingRegistrationVector  ETV
339	230987 551 26430 589560 43.5 54.934304165967 23 0 2 28 44
vector 338  csma802154net.dataCentricNetworkMan  pendingRREQVector  ETV
338	229789 1198 26435 556869 43.50001 54.559609725787 43 0 1 15 15
vector 333  csma802154net.dataCentricNetworkMan  AODVDataLineBreakVector  ETV
333	217828 30 408781 408781 51.809617698681 51.809617698681 1 1 1 1 1
vector 336  csma802154net.dataCentricNetworkMan  PendingDataPacketsVector  ETV
336	217858 11931 592446 1965953 70 7273.042564167327 390 0 3 455 871
vector 353  csma802154net.fixhost[13].udpApp  "End-to-end delay"  ETV
353	234469 577 593133 1950508 70.00931602646 7270.00771602646 13 0.007396026461 0.01123602646 0.114708343986 0.0010284593984548
vector 324  csma802154net.dataCentricNetworkMan  dataPacketE2EDelay  ETV
324	2092 6427 593133 1965953 70.00931602646 7273.042564167327 143 0.007396026461 0.09334013729 5.082801782698 0.23797031768564
vector 356  csma802154net.fixhost[16].udpApp  "End-to-end delay"  ETV
356	235046 579 593514 1950889 70.013116044409 7270.012476044408 13 0.01087604441 0.015676044409 0.172108577321 0.0022940366144183
vector 358  csma802154net.fixhost[18].udpApp  "End-to-end delay"  ETV
358	235625 591 594284 1951659 70.020716075744 7270.021996075743 13 0.020076075745 0.024236075743 0.285628984673 0.0062972844373209
vector 346  csma802154net.fixhost[6].udpApp  "End-to-end delay"  ETV
346	233287 591 597058 1955094 71.028676080574 7271.027324080574 13 0.022916080574 0.041332080573 0.358173047459 0.010104700614594
vector 347  csma802154net.fixhost[7].udpApp  "End-to-end delay"  ETV
347	233878 591 598309 1955517 71.063764106954 7271.032724106954 13 0.031516106952 0.063764106954 0.600381390395 0.029459436537665
vector 342  csma802154net.fixhost[2].udpApp  "End-to-end delay"  ETV
342	231538 583 601146 1958587 72.028676084378 7272.026436084378 13 0.024196084376 0.046700084378 0.389981193272 0.012228257288759
vector 345  csma802154net.fixhost[5].udpApp  "End-to-end delay"  ETV
345	232708 579 603151 1961177 72.066852137291 7272.06109213729 13 0.03556413729 0.09334013729 0.795973777332 0.052741195275495
vector 344  csma802154net.fixhost[4].udpApp  "End-to-end delay"  ETV
344	232121 587 603579 1959588 72.074004112066 7272.032084112066 13 0.027924112065 0.074004112066 0.692589554358 0.040143939148427
vector 361  csma802154net.fixhost[21].udpApp  "End-to-end delay"  ETV
361	236216 579 606633 1964228 73.031196135384 7273.029596135381 13 0.02007607114 0.033436135384 0.341397310277 0.0091866550491211
vector 364  csma802154net.fixhost[24].udpApp  "End-to-end delay"  ETV
364	236795 589 607928 1965520 73.044772149942 7273.040116149939 13 0.031732099925 0.067812149942 0.592557631262 0.02839974251814
vector 365  csma802154net.fixhost[25].udpApp  "End-to-end delay"  ETV
365	237384 581 608362 1965953 73.04729216733 7273.042564167327 13 0.038156167329 0.090676136492 0.739301972363 0.046086610803241
