version 2
run AODVScenario_1f-57-20121121-14:58:30-6256
attr configname AODVScenario_1f
attr datetime 20121121-14:58:30
attr experiment AODVScenario_1f
attr inifile AODV.ini
attr iterationvars $numNodes=107
attr iterationvars2 "$numNodes=107, $repetition=0"
attr measurement $numNodes=107
attr network csma802154net
attr numNodes 107
attr processid 6256
attr repetition 0
attr replication #0
attr resultdir results
attr runnumber 57
attr seedset 57

vector 439  csma802154net.dataCentricNetworkMan  RREQPacketFrequency  ETV
vector 440  csma802154net.dataCentricNetworkMan  RERRPacketFrequency  ETV
vector 441  csma802154net.dataCentricNetworkMan  DiscoveryPacketFrequency  ETV
vector 442  csma802154net.dataCentricNetworkMan  RegisterPacketFrequency  ETV
vector 443  csma802154net.dataCentricNetworkMan  RReplyPacketFrequency  ETV
vector 444  csma802154net.dataCentricNetworkMan  AODVDataPacketFrequency  ETV
vector 451  csma802154net.dataCentricNetworkMan  pendingRegistrationVector  ETV
vector 450  csma802154net.dataCentricNetworkMan  pendingRREQVector  ETV
vector 445  csma802154net.dataCentricNetworkMan  AODVDataLineBreakVector  ETV
vector 448  csma802154net.dataCentricNetworkMan  PendingDataPacketsVector  ETV
vector 454  csma802154net.fixhost[2].udpApp  "End-to-end delay"  ETV
vector 436  csma802154net.dataCentricNetworkMan  dataPacketE2EDelay  ETV
vector 456  csma802154net.fixhost[4].udpApp  "End-to-end delay"  ETV
vector 472  csma802154net.fixhost[20].udpApp  "End-to-end delay"  ETV
vector 473  csma802154net.fixhost[21].udpApp  "End-to-end delay"  ETV
vector 478  csma802154net.fixhost[26].udpApp  "End-to-end delay"  ETV
vector 471  csma802154net.fixhost[19].udpApp  "End-to-end delay"  ETV
vector 457  csma802154net.fixhost[5].udpApp  "End-to-end delay"  ETV
vector 462  csma802154net.fixhost[10].udpApp  "End-to-end delay"  ETV
vector 460  csma802154net.fixhost[8].udpApp  "End-to-end delay"  ETV
436	1308203	70.010556039738	0.010556039738
436	1308721	70.014004051459	0.014004051459
436	1311688	71.024236064162	0.024236064162
436	1312751	71.035324093209	0.035324093209
436	1313874	71.042252122858	0.042252122858
436	1316912	72.025836071196	0.025836071196
436	1321810	73.125204092447	0.125204092447
436	1323776	73.15044413728	0.15044413728
436	1324945	73.157980113328	0.157980113328
436	1457580	670.011516051459	0.011516051459
436	1458143	670.017844039739	0.017844039739
436	1462402	671.026404064162	0.026404064162
436	1462948	671.028316122858	0.028316122858
436	1464795	671.074292093209	0.074292093209
436	1467853	672.021356071196	0.021356071196
436	1472095	673.028636092447	0.028636092447
436	1474101	673.06461213728	0.06461213728
436	1475811	673.095508113329	0.095508113329
436	1608433	1270.011516039739	0.011516039739
436	1609741	1270.041452051459	0.041452051459
436	1613235	1271.025836064162	0.025836064162
436	1613767	1271.027716093209	0.027716093209
436	1615690	1271.061060122858	0.061060122858
436	1618727	1272.024556071194	0.024556071194
436	1624448	1273.033716113328	0.033716113328
436	1625836	1273.055692092447	0.055692092447
436	1626957	1273.083668137279	0.083668137279
436	1759703	1870.011196039739	0.011196039739
436	1761011	1870.042732051459	0.042732051459
436	1764510	1871.030244064162	0.030244064162
436	1765269	1871.034684093209	0.034684093209
436	1766396	1871.063052122857	0.063052122857
436	1769433	1872.020716071196	0.020716071196
436	1773781	1873.029916092448	0.029916092448
436	1776022	1873.059564137278	0.059564137278
436	1776610	1873.063972113328	0.063972113328
436	1909194	2470.012156051459	0.012156051459
436	1909757	2470.017204039739	0.017204039739
436	1912719	2471.022956064162	0.022956064162
436	1914566	2471.036564122858	0.036564122858
436	1915651	2471.060460093209	0.060460093209
436	1918709	2472.022316071196	0.022316071196
436	1923350	2473.03371613728	0.03371613728
436	1924523	2473.044132113329	0.044132113329
436	1925668	2473.054660092448	0.054660092448
436	2058520	3070.015676039739	0.015676039739
436	2059044	3070.039284051459	0.039284051459
436	2062011	3071.020396064162	0.020396064162
436	2063614	3071.033084093209	0.033084093209
436	2064196	3071.037132122858	0.037132122858
436	2067233	3072.023276071196	0.023276071196
436	2071589	3073.030876092445	0.030876092445
436	2073837	3073.063012113326	0.063012113326
436	2074402	3073.065500137276	0.065500137276
436	2207110	3670.014396051459	0.014396051459
436	2207673	3670.019124039739	0.019124039739
436	2210635	3671.020716064162	0.020716064162
436	2211694	3671.030844093208	0.030844093208
436	2212816	3671.038484122857	0.038484122857
436	2215853	3672.024556071195	0.024556071195
436	2220203	3673.029916092447	0.029916092447
436	2222146	3673.059564113328	0.059564113328
436	2223257	3673.088220137279	0.088220137279
436	2355897	4270.013436039737	0.013436039737
436	2356417	4270.020084051458	0.020084051458
436	2359384	4271.022316064161	0.022316064161
436	2360447	4271.031484093208	0.031484093208
436	2361570	4271.041292122856	0.041292122856
436	2364607	4272.021996071194	0.021996071194
436	2369502	4273.031796113328	0.031796113328
436	2371414	4273.055124092447	0.055124092447
436	2372535	4273.082780137275	0.082780137275
436	2505175	4870.012476039739	0.012476039739
436	2505694	4870.019444051459	0.019444051459
436	2508880	4871.019756064162	0.019756064162
436	2509946	4871.048764093209	0.048764093209
436	2512669	4871.105148122856	0.105148122856
436	2515706	4872.021036071196	0.021036071196
436	2520926	4873.03403613728	0.03403613728
436	2522311	4873.040652092448	0.040652092448
436	2522893	4873.061732113329	0.061732113329
436	2656148	5470.012476051459	0.012476051459
436	2656707	5470.014644039739	0.014644039739
436	2659887	5471.021356064161	0.021356064161
436	2660954	5471.049724093207	0.049724093207
436	2662077	5471.057932122856	0.057932122856
436	2665114	5472.021996071196	0.021996071196
436	2669245	5473.029276092448	0.029276092448
436	2671162	5473.038444113328	0.038444113328
436	2672272	5473.063972137279	0.063972137279
436	2804873	6070.013436051459	0.013436051459
436	2805436	6070.017844039739	0.017844039739
436	2808929	6071.025124064161	0.025124064161
436	2810022	6071.030876122857	0.030876122857
436	2810566	6071.035572093208	0.035572093208
436	2813624	6072.024556071195	0.024556071195
436	2820184	6073.059140092447	0.059140092447
436	2820761	6073.061660137279	0.061660137279
436	2821349	6073.068380113327	0.068380113327
436	2953975	6670.013756039739	0.013756039739
436	2954491	6670.015924051459	0.015924051459
436	2957679	6671.028716064161	0.028716064161
436	2959300	6671.062484122856	0.062484122856
436	2959844	6671.066684093208	0.066684093208
436	2962902	6672.021036071195	0.021036071195
436	2967800	6673.034644092447	0.034644092447
436	2969078	6673.054372113326	0.054372113326
436	2970308	6673.083172137277	0.083172137277
436	3103055	7270.012476039739	0.012476039739
436	3103574	7270.017524051458	0.017524051458
436	3106761	7271.02519606416	0.02519606416
436	3108050	7271.053244093207	0.053244093207
436	3109177	7271.081292122856	0.081292122856
436	3112214	7272.021036071195	0.021036071195
436	3117078	7273.033716137279	0.033716137279
436	3118244	7273.040684113328	0.040684113328
436	3120694	7273.088188092445	0.088188092445
439	855	1.005	1
439	1169	1.01	36
439	1872	1.015	51
439	2985	1.02	50
439	4624	1.025	55
439	7113	1.03	96
439	9271	1.035	92
439	11912	1.04	115
439	14435	1.045	102
439	15782	1.05	49
439	17906	1.055	125
439	19220	1.06	80
439	20633	1.065	97
439	22113	1.07	94
439	23506	1.075	95
439	25076	1.08	112
439	26458	1.085	73
439	27397	1.09	74
439	28618	1.095	109
439	29526	1.1	48
439	30221	1.105	70
439	31181	1.11	77
439	32519	1.115	115
439	32900	1.12	32
439	33338	1.125	44
439	33455	1.13	0
439	33832	1.135832771062	55
439	33833	1.140832771062	0
439	34306	1.150384378465	51
439	34307	1.155384378465	0
439	35207	1.174301838661	93
439	35630	1.179301838661	41
439	35747	1.184301838661	0
439	36094	1.191138605881	49
439	36095	1.196138605881	0
439	45399	43.505	1
439	45409	43.51	0
439	47541	43.517166824072	36
439	48875	43.522166824072	0
439	49913	43.527166824072	0
439	51368	43.532166824072	0
439	52400	43.537166824072	0
439	53652	43.542166824072	0
439	54646	43.547166824072	0
439	56928	43.558213670466	0
439	58054	43.563213670466	0
439	59099	43.568213670466	0
439	60900	43.576813692567	0
439	62314	43.581813692567	0
439	63459	43.586813692567	0
439	64349	43.591813692567	0
439	65544	43.596813692567	0
439	66098	43.601813692567	0
439	68328	43.611277178507	0
439	69199	43.616277178507	0
439	70219	43.621277178507	0
439	71246	43.626775694825	0
439	72399	43.631775694825	0
439	73473	43.636775694825	0
439	74606	43.641775694825	0
439	75366	43.646775694825	0
439	75912	43.652426690088	0
439	77063	43.657426690088	0
439	78129	43.662426690088	0
439	79482	43.667426690088	0
439	79968	43.672426690088	0
439	81227	43.682483714302	0
439	82170	43.687483714302	0
439	82832	43.692483714302	0
439	83601	43.697483714302	0
439	84584	43.702483714302	0
439	85697	43.708608243951	0
439	86328	43.713608243951	0
439	86742	43.718608243951	0
439	87761	43.723608243951	0
439	88725	43.728608243951	0
439	89338	43.733608243951	0
439	90289	43.739582228426	0
439	90924	43.744582228426	0
439	92207	43.749582228426	0
439	93065	43.754582228426	0
439	93715	43.759582228426	0
439	94439	43.764582228426	0
439	95225	43.769582228426	0
439	96125	43.774582228426	0
439	96768	43.779582228426	0
439	97667	43.784582228426	0
439	98405	43.793616715161	0
439	98934	43.798616715161	0
439	99056	43.803616715161	0
439	100312	43.808616715161	0
439	100974	43.813616715161	0
439	101474	43.818616715161	0
439	101987	43.823616715161	0
439	101989	43.828616715161	0
439	102523	43.842684774848	0
439	102524	43.847684774848	0
439	103054	43.8567657316	0
439	103055	43.8617657316	0
439	104101	43.880206407445	0
439	104102	43.885206407445	0
439	104603	43.896844769698	0
439	104604	43.901844769698	0
439	105133	43.918069761823	0
439	105134	43.923069761823	0
439	105784	43.955182399205	0
439	106201	43.960182399205	0
439	106690	43.965182399205	0
439	106915	44.505	1
439	106928	44.51	0
439	109311	44.516961985265	35
439	110991	44.521961985265	0
439	112181	44.526961985265	0
439	113087	44.531961985265	0
439	114030	44.536961985265	0
439	115207	44.541961985265	0
439	116392	44.546961985265	0
439	117571	44.551961985265	0
439	118435	44.556961985265	0
439	120276	44.569280361272	0
439	121098	44.574280361272	0
439	121998	44.579280361272	0
439	124156	44.589365997459	0
439	125556	44.594365997459	0
439	126457	44.599365997459	0
439	128552	44.611109785867	0
439	129316	44.616109785867	0
439	130207	44.621109785867	0
439	132616	44.631469431316	0
439	133152	44.636469431316	0
439	134312	44.641555768483	0
439	135124	44.646555768483	0
439	135791	44.651555768483	0
439	136850	44.656555768483	0
439	137884	44.661555768483	0
439	138874	44.666555768483	0
439	139677	44.671555768483	0
439	140456	44.676555768483	0
439	141630	44.681555768483	0
439	143182	44.689717245833	0
439	144119	44.694717245833	0
439	145347	44.699717245833	0
439	146040	44.704717245833	0
439	147496	44.711497632401	0
439	148114	44.716497632401	0
439	149936	44.724509908989	0
439	150573	44.729509908989	0
439	152204	44.737620085081	0
439	153270	44.742620085081	0
439	155308	44.75232703417	0
439	156311	44.75732703417	0
439	156832	44.76232703417	0
439	157373	44.76732703417	0
439	158424	44.77232703417	0
439	159061	44.77732703417	0
439	159981	44.78232703417	0
439	160798	44.78732703417	0
439	161428	44.79232703417	0
439	162771	44.801350025953	0
439	163544	44.806350025953	0
439	164934	44.811350025953	0
439	165578	44.816350025953	0
439	166545	44.822404546594	0
439	167048	44.827404546594	0
439	168081	44.835389256474	0
439	168969	44.840389256474	0
439	169389	44.845389256474	0
439	169515	44.850389256474	0
439	170947	44.860339610511	0
439	171693	44.865339610511	0
439	172218	44.870339610511	0
439	173243	44.88129634294	0
439	173776	44.88629634294	0
439	174414	44.894137037967	0
439	174829	44.899137037967	0
439	175353	44.904137037967	0
439	175354	44.909137037967	0
439	175698	45.505	1
439	177048	45.51	41
439	178855	45.515	0
439	180788	45.52	0
439	181728	45.525	0
439	182758	45.53	0
439	183556	45.535	0
439	184739	45.54	0
439	186287	45.545	0
439	187344	45.55	0
439	188259	45.555	0
439	189627	45.56	0
439	191103	45.565	0
439	192725	45.571405849384	0
439	194063	45.576405849384	0
439	195482	45.581405849384	0
439	196803	45.586405849384	0
439	197612	45.591405849384	0
439	199659	45.596405849384	0
439	200498	45.601405849384	0
439	201680	45.606694949908	0
439	202445	45.611694949908	0
439	203889	45.619633456279	0
439	205258	45.624633456279	0
439	206284	45.629633456279	0
439	207097	45.634633456279	0
439	208832	45.644273378461	0
439	209731	45.649273378461	0
439	210651	45.654273378461	0
439	213461	45.664541302608	0
439	214460	45.669541302608	0
439	215251	45.674541302608	0
439	217375	45.684825120656	0
439	218327	45.689825120656	0
439	219672	45.696225402545	0
439	220767	45.701225402545	0
439	221997	45.706225402545	0
439	223346	45.713969656385	0
439	224318	45.718969656385	0
439	225613	45.723969656385	0
439	226914	45.728969656385	0
439	227805	45.733969656385	0
439	228958	45.738969656385	0
439	229609	45.743969656385	0
439	231494	45.755725147342	0
439	232530	45.760725147342	0
439	233310	45.765725147342	0
439	234254	45.770725147342	0
439	235202	45.775725147342	0
439	236122	45.780725147342	0
439	237203	45.788031025679	0
439	237847	45.793031025679	0
439	238915	45.798031025679	0
439	240037	45.803031025679	0
439	240653	45.808031025679	0
439	241190	45.813031025679	0
439	241735	45.818031025679	0
439	242274	45.823031025679	0
439	243372	45.828738507005	0
439	244329	45.833738507005	0
439	245117	45.838738507005	0
439	245615	45.843738507005	0
439	246658	45.851370250599	0
439	246781	45.856370250599	0
439	248517	45.866655718325	0
439	249021	45.871655718325	0
439	250088	45.879363751183	0
439	250207	45.884363751183	0
439	250998	45.889363751183	0
439	251241	45.894363751183	0
439	252198	45.899493535833	0
439	252315	45.904493535833	0
439	253350	45.91438098351	0
439	253732	45.91938098351	0
439	253733	45.92438098351	0
439	254270	45.945577892946	0
439	254271	45.950577892946	0
439	254810	45.977821802423	0
439	254811	45.982821802423	0
439	255033	46.505	1
439	255040	46.51	0
439	256936	46.519880630901	29
439	258530	46.524880630901	0
439	259957	46.529880630901	0
439	262037	46.534880630901	0
439	263337	46.539880630901	0
439	264810	46.544880630901	0
439	265734	46.549880630901	0
439	266872	46.554880630901	0
439	268070	46.560026519413	0
439	269287	46.565026519413	0
439	270195	46.570026519413	0
439	270957	46.575026519413	0
439	272389	46.581436853157	0
439	273793	46.586436853157	0
439	274811	46.591436853157	0
439	276477	46.596436853157	0
439	277398	46.601436853157	0
439	278462	46.606436853157	0
439	280004	46.611526929059	0
439	281253	46.616526929059	0
439	282419	46.622486883148	0
439	283040	46.627486883148	0
439	284102	46.634165916291	0
439	284868	46.639165916291	0
439	285621	46.644165916291	0
439	286692	46.649165916291	0
439	287720	46.654165916291	0
439	288905	46.663587467626	0
439	289310	46.668587467626	0
439	290052	46.673587467626	0
439	291072	46.678887981408	0
439	292187	46.683887981408	0
439	293441	46.688887981408	0
439	294076	46.693887981408	0
439	295021	46.699489768364	0
439	295728	46.704489768364	0
439	296636	46.710832890125	0
439	297168	46.715832890125	0
439	298247	46.723007486946	0
439	299157	46.728007486946	0
439	300208	46.733007486946	0
439	300998	46.738007486946	0
439	302312	46.743007486946	0
439	303205	46.748007486946	0
439	303710	46.753007486946	0
439	304715	46.761310553882	0
439	305525	46.766310553882	0
439	307067	46.775888411234	0
439	308176	46.780888411234	0
439	308675	46.785888411234	0
439	309554	46.790888411234	0
439	311563	46.802334950772	0
439	312715	46.807334950772	0
439	313498	46.812334950772	0
439	314261	46.817334950772	0
439	314262	46.822334950772	0
439	315288	46.833415361674	0
439	315911	46.838415361674	0
439	318081	46.861117617568	0
439	319000	46.866117617568	0
439	319143	46.871117617568	0
439	319647	46.877911388903	0
439	319649	46.882911388903	0
439	320145	46.892174571396	0
439	320146	46.897174571396	0
439	320796	46.906565485902	0
439	321222	46.911565485902	0
439	321223	46.916565485902	0
439	321445	47.505	1
439	321455	47.51	0
439	324115	47.517918308965	57
439	326493	47.522918308965	0
439	328291	47.527918308965	0
439	330094	47.532918308965	0
439	331330	47.537918308965	0
439	332548	47.542918308965	0
439	333989	47.547918308965	0
439	334965	47.552918308965	0
439	336764	47.557918308965	0
439	338452	47.562918308965	0
439	339848	47.567918308965	0
439	341780	47.573987004095	0
439	343142	47.578987004095	0
439	344810	47.583987004095	0
439	346404	47.588987004095	0
439	348286	47.593987004095	0
439	350460	47.60405450424	0
439	351471	47.60905450424	0
439	352611	47.61405450424	0
439	354177	47.620055594965	0
439	355802	47.625055594965	0
439	357476	47.630055594965	0
439	358672	47.635055594965	0
439	361645	47.644161031714	0
439	363202	47.649161031714	0
439	364329	47.654161031714	0
439	365673	47.659297640998	0
439	366927	47.664297640998	0
439	367977	47.669297640998	0
439	370416	47.679156762497	0
439	371425	47.684156762497	0
439	372651	47.689359613978	0
439	374635	47.694359613978	0
439	379225	47.712882086195	0
439	380804	47.717882086195	0
439	382254	47.722882086195	0
439	383720	47.727882086195	0
439	385360	47.732882086195	0
439	387794	47.743800623803	0
439	389292	47.748800623803	0
439	390865	47.753800623803	0
439	392224	47.758800623803	0
439	393771	47.763800623803	0
439	395141	47.768800623803	0
439	396010	47.773800623803	0
439	397406	47.7793442384	0
439	398735	47.7843442384	0
439	400153	47.7893442384	0
439	402121	47.796001947292	0
439	403544	47.801001947292	0
439	405091	47.806001947292	0
439	406443	47.811001947292	0
439	407825	47.816001947292	0
439	411096	47.82893705499	0
439	412410	47.83393705499	0
439	413887	47.83893705499	0
439	414995	47.84393705499	0
439	416373	47.84893705499	0
439	417304	47.85393705499	0
439	419070	47.85893705499	0
439	420353	47.86393705499	0
439	421359	47.86893705499	0
439	422805	47.875784103747	0
439	424119	47.880784103747	0
439	425636	47.885784103747	0
439	427036	47.890784103747	0
439	427722	47.895784103747	0
439	429520	47.903096836118	0
439	430931	47.908096836118	0
439	431720	47.913096836118	0
439	434476	47.9266104881	0
439	435384	47.9316104881	0
439	436898	47.939002312246	0
439	437660	47.944002312246	0
439	438886	47.949002312246	0
439	440110	47.957132235216	0
439	441574	47.962132235216	0
439	442276	47.967132235216	0
439	443240	47.972132235216	0
439	444580	47.977747299527	0
439	445238	47.982747299527	0
439	446593	47.987747299527	0
439	447283	47.992747299527	0
439	448079	47.997747299527	0
439	448577	48.002747299527	0
439	449800	48.007950313672	0
439	450212	48.012950313672	0
439	450662	48.017950313672	0
439	451610	48.022950313672	0
439	452055	48.027950313672	0
439	453633	48.035077519207	0
439	454188	48.040077519207	0
439	454843	48.045077519207	0
439	455287	48.050625359383	0
439	455291	48.055625359383	0
439	455924	48.060625359383	0
439	456355	48.067276090415	0
439	456356	48.072276090415	0
439	456363	48.505	1
439	456370	48.51	0
439	458516	48.519942367473	40
439	460351	48.524942367473	0
439	461883	48.529942367473	0
439	463782	48.534942367473	0
439	465069	48.539942367473	0
439	466708	48.544942367473	0
439	467852	48.549942367473	0
439	469300	48.554942367473	0
439	470810	48.559942367473	0
439	471751	48.564942367473	0
439	473552	48.572193583893	0
439	475217	48.577193583893	0
439	475983	48.582193583893	0
439	476951	48.587193583893	0
439	477704	48.592193583893	0
439	478667	48.598154673109	0
439	479678	48.603154673109	0
439	480661	48.608154673109	0
439	481773	48.613154673109	0
439	482826	48.618154673109	0
439	484095	48.623154673109	0
439	485722	48.629203777011	0
439	486773	48.634203777011	0
439	487337	48.639203777011	0
439	488598	48.644203777011	0
439	489411	48.649203777011	0
439	490330	48.654203777011	0
439	493434	48.670147526023	0
439	494732	48.675147526023	0
439	495717	48.680147526023	0
439	500102	48.701728926544	0
439	500881	48.706728926544	0
439	501920	48.712421535636	0
439	502841	48.717421535636	0
439	503649	48.722421535636	0
439	504773	48.727421535636	0
439	505444	48.732421535636	0
439	509365	48.74990292394	0
439	510760	48.75490292394	0
439	511571	48.75990292394	0
439	512603	48.76490292394	0
439	513563	48.76990292394	0
439	515724	48.777700958547	0
439	516887	48.782700958547	0
439	517569	48.787700958547	0
439	518461	48.792700958547	0
439	521377	48.806395610331	0
439	522444	48.811395610331	0
439	523177	48.816395610331	0
439	524275	48.826626971688	0
439	525186	48.831626971688	0
439	526157	48.836626971688	0
439	526918	48.841626971688	0
439	528220	48.846626971688	0
439	529015	48.851626971688	0
439	529779	48.856626971688	0
439	530408	48.861626971688	0
439	531431	48.866626971688	0
439	532138	48.873067568927	0
439	533036	48.878067568927	0
439	534090	48.883067568927	0
439	534746	48.889486280157	0
439	535563	48.894486280157	0
439	535826	48.899486280157	0
439	535947	48.904486280157	0
439	537976	48.919441583946	0
439	538382	48.924441583946	0
439	539055	48.929441583946	0
439	539714	48.944323044682	0
439	540139	48.949323044682	0
439	540140	48.954323044682	0
439	541748	48.969708041984	0
439	542252	48.974708041984	0
439	543545	49.005072272227	0
439	543546	49.010072272227	0
439	543711	49.505	1
439	545019	49.51	63
439	548348	49.515	0
439	550575	49.52	0
439	553015	49.525	0
439	554797	49.53	0
439	556120	49.535	0
439	558189	49.54	0
439	559496	49.545	0
439	560788	49.55	0
439	566803	49.57171653377	0
439	568223	49.57671653377	0
439	569799	49.58171653377	0
439	570768	49.58671653377	0
439	572206	49.59171653377	0
439	574335	49.599151819787	0
439	575532	49.604151819787	0
439	579435	49.619519771322	0
439	580874	49.624519771322	0
439	582059	49.629519771322	0
439	583862	49.63464473014	0
439	585187	49.63964473014	0
439	587399	49.647445524983	0
439	589555	49.652445524983	0
439	590880	49.657445524983	0
439	591702	49.662445524983	0
439	594281	49.672202657975	0
439	595612	49.677202657975	0
439	596990	49.682202657975	0
439	598118	49.687202657975	0
439	600272	49.694968156613	0
439	601612	49.699968156613	0
439	603351	49.706206759411	0
439	604425	49.711206759411	0
439	606382	49.719221771322	0
439	607910	49.724221771322	0
439	609384	49.729221771322	0
439	610705	49.734221771322	0
439	612280	49.739221771322	0
439	613140	49.744221771322	0
439	615221	49.749221771322	0
439	616581	49.754221771322	0
439	619612	49.761872565939	0
439	621047	49.766872565939	0
439	622660	49.771872565939	0
439	623748	49.776872565939	0
439	626393	49.785077756827	0
439	627943	49.790077756827	0
439	629466	49.795077756827	0
439	631046	49.802181202717	0
439	632234	49.807181202717	0
439	634069	49.813242726622	0
439	635027	49.818242726622	0
439	636398	49.824799720779	0
439	638169	49.829799720779	0
439	639869	49.838054815352	0
439	641069	49.843054815352	0
439	642115	49.848054815352	0
439	643390	49.853054815352	0
439	644678	49.858054815352	0
439	647910	49.871060817687	0
439	649013	49.876060817687	0
439	650219	49.881060817687	0
439	651778	49.886060817687	0
439	653208	49.891060817687	0
439	656082	49.899939092958	0
439	657043	49.904939092958	0
439	657958	49.909939092958	0
439	659311	49.914939092958	0
439	660094	49.919939092958	0
439	661556	49.924939092958	0
439	665274	49.942010131096	0
439	666350	49.947010131096	0
439	668880	49.957962019534	0
439	669439	49.962962019534	0
439	670784	49.969483116645	0
439	671791	49.974483116645	0
439	673120	49.980056204325	0
439	674565	49.985056204325	0
439	675680	49.993009843965	0
439	676609	49.998009843965	0
439	678003	50.003009843965	0
439	679000	50.008965813141	0
439	680041	50.013965813141	0
439	681165	50.018965813141	0
439	681419	50.023965813141	0
439	682485	50.028965813141	0
439	683250	50.033965813141	0
439	683804	50.038965813141	0
439	684381	50.043965813141	0
439	685171	50.048965813141	0
439	685848	50.053965813141	0
439	686404	50.06100077071	0
439	687358	50.06600077071	0
439	688339	50.07100077071	0
439	689534	50.07600077071	0
439	690358	50.092522932597	0
439	690796	50.097522932597	0
439	691068	50.102522932597	0
439	691925	50.107522932597	0
439	691961	50.112522932597	0
439	692532	50.174946951442	0
439	692533	50.179946951442	0
439	692540	50.505	1
439	692663	50.51	0
439	694264	50.51647889241	24
439	695695	50.52147889241	0
439	696881	50.52647889241	0
439	697658	50.53147889241	0
439	698068	50.53647889241	0
439	698897	50.54147889241	0
439	700125	50.54647889241	0
439	701471	50.55291319964	0
439	702389	50.55791319964	0
439	703588	50.566081588349	0
439	704693	50.571081588349	0
439	705887	50.576081588349	0
439	707340	50.581081588349	0
439	708776	50.586081588349	0
439	709555	50.591081588349	0
439	711250	50.602965310544	0
439	712777	50.607965310544	0
439	713555	50.612965310544	0
439	713978	50.617965310544	0
439	715171	50.622965310544	0
439	715931	50.627965310544	0
439	718291	50.640475217523	0
439	718680	50.645475217523	0
439	721990	50.66850924381	0
439	722533	50.67350924381	0
439	724832	50.691159355659	0
439	725509	50.696159355659	0
439	726688	50.701709322327	0
439	727824	50.706709322327	0
439	729107	50.711709322327	0
439	730381	50.716709322327	0
439	731159	50.721709322327	0
439	731579	50.726709322327	0
439	732756	50.731709322327	0
439	733836	50.736709322327	0
439	734857	50.741709322327	0
439	736811	50.750871378445	0
439	737402	50.755871378445	0
439	738421	50.760871378445	0
439	739405	50.766318209075	0
439	740340	50.771318209075	0
439	741681	50.776318209075	0
439	743899	50.785153352107	0
439	744683	50.790153352107	0
439	744964	50.795153352107	0
439	747328	50.810971728107	0
439	748568	50.815971728107	0
439	749576	50.820971728107	0
439	750676	50.831977964531	0
439	751613	50.836977964531	0
439	752736	50.841977964531	0
439	754021	50.850575354788	0
439	754155	50.855575354788	0
439	754843	50.866309370049	0
439	755622	50.871309370049	0
439	756054	50.876309370049	0
439	756600	50.89105806226	0
439	757132	50.89605806226	0
439	757647	50.925453300886	0
439	757648	50.930453300886	0
439	757917	51.505	1
439	758532	51.51	42
439	760868	51.515	0
439	762250	51.52	0
439	764761	51.527766102663	0
439	765719	51.532766102663	0
439	767009	51.537766102663	0
439	768098	51.542766102663	0
439	769848	51.548817550146	0
439	770907	51.553817550146	0
439	771740	51.558817550146	0
439	775222	51.573214775047	0
439	776398	51.578214775047	0
439	777493	51.583214775047	0
439	780309	51.595255552278	0
439	781270	51.600255552278	0
439	784946	51.614571012956	0
439	786220	51.619571012956	0
439	787564	51.624608984505	0
439	788773	51.629608984505	0
439	793859	51.653302430212	0
439	795212	51.658302430212	0
439	796058	51.663302430212	0
439	797276	51.668302430212	0
439	798496	51.673302430212	0
439	799467	51.678302430212	0
439	800540	51.683302430212	0
439	801641	51.688302430212	0
439	802857	51.693302430212	0
439	803788	51.698302430212	0
439	805655	51.706783373162	0
439	806981	51.711783373162	0
439	808226	51.716783373162	0
439	809331	51.721783373162	0
439	810500	51.726783373162	0
439	812488	51.734575335991	0
439	813426	51.739575335991	0
439	815490	51.747627068194	0
439	816680	51.752627068194	0
439	817799	51.757627068194	0
439	818605	51.762627068194	0
439	819681	51.767732737447	0
439	820643	51.772732737447	0
439	824962	51.793053945817	0
439	825907	51.798053945817	0
439	826938	51.803053945817	0
439	828003	51.808053945817	0
439	828908	51.813053945817	0
439	829870	51.818053945817	0
439	831184	51.826749335708	0
439	832147	51.831749335708	0
439	833487	51.836749335708	0
439	834513	51.841749335708	0
439	835806	51.846749335708	0
439	836495	51.851749335708	0
439	839533	51.865714785252	0
439	840654	51.870714785252	0
439	841967	51.877282082157	0
439	843025	51.882282082157	0
439	844097	51.887282082157	0
439	845189	51.892282082157	0
439	845753	51.897282082157	0
439	846570	51.902282082157	0
439	847548	51.907282082157	0
439	848190	51.912282082157	0
439	849268	51.918923070455	0
439	849395	51.923923070455	0
439	850699	51.932227095486	0
439	851248	51.937227095486	0
439	851251	51.942227095486	0
439	852097	51.952725385716	0
439	853029	51.957725385716	0
439	853473	51.962725385716	0
439	853474	51.967725385716	0
439	854028	51.981166641795	0
439	854029	51.986166641795	0
439	854578	51.999997824065	0
439	854794	52.004997824065	0
439	855363	52.059701839362	0
439	855364	52.064701839362	0
439	855400	52.505	1
439	855410	52.51	0
439	857993	52.518211209045	54
439	860711	52.523211209045	0
439	862837	52.528211209045	0
439	865305	52.533211209045	0
439	866728	52.538211209045	0
439	868231	52.543211209045	0
439	869522	52.548211209045	0
439	872223	52.556480565535	0
439	873420	52.561480565535	0
439	875272	52.566480565535	0
439	876889	52.571480565535	0
439	878949	52.576480565535	0
439	882566	52.591487376867	0
439	883781	52.596487376867	0
439	885634	52.601487376867	0
439	887011	52.606487376867	0
439	889157	52.611487376867	0
439	892586	52.6249239603	0
439	894515	52.6299239603	0
439	897240	52.64080603573	0
439	898235	52.64580603573	0
439	899941	52.65080603573	0
439	902991	52.662511356868	0
439	904445	52.667511356868	0
439	906726	52.675911179524	0
439	908175	52.680911179524	0
439	909807	52.685911179524	0
439	912500	52.695587987933	0
439	913842	52.700587987933	0
439	915195	52.705587987933	0
439	916397	52.710587987933	0
439	917764	52.717124760206	0
439	919001	52.722124760206	0
439	920612	52.727382358318	0
439	922242	52.732382358318	0
439	923796	52.737382358318	0
439	925509	52.742382358318	0
439	926732	52.747382358318	0
439	928619	52.754719332296	0
439	929994	52.759719332296	0
439	931734	52.764719332296	0
439	933854	52.769719332296	0
439	934926	52.774719332296	0
439	936139	52.779719332296	0
439	937365	52.784719332296	0
439	941519	52.800238370135	0
439	942962	52.805238370135	0
439	944238	52.810963667949	0
439	945705	52.815963667949	0
439	946762	52.820963667949	0
439	948180	52.825963667949	0
439	949507	52.830963667949	0
439	950216	52.835963667949	0
439	952029	52.840963667949	0
439	952972	52.845963667949	0
439	954471	52.850963667949	0
439	955757	52.855963667949	0
439	956949	52.860963667949	0
439	957994	52.865963667949	0
439	958788	52.870963667949	0
439	959750	52.875963667949	0
439	961014	52.880963667949	0
439	962015	52.885963667949	0
439	962904	52.890963667949	0
439	964054	52.896160701466	0