file 240275 1353539532                                          
version 2
run AODVScenario_1f-17-20121121-14:46:45-704
attr configname AODVScenario_1f
attr datetime 20121121-14:46:45
attr experiment AODVScenario_1f
attr inifile AODV.ini
attr iterationvars $numNodes=67
attr iterationvars2 "$numNodes=67, $repetition=0"
attr measurement $numNodes=67
attr network csma802154net
attr numNodes 67
attr processid 704
attr repetition 0
attr replication #0
attr resultdir results
attr runnumber 17
attr seedset 17
vector 279  csma802154net.dataCentricNetworkMan  RREQPacketFrequency  ETV
279	9176 34935 538 1644301 1.005 7273.084772087266 1242 0 79 1638 61304
vector 280  csma802154net.dataCentricNetworkMan  RERRPacketFrequency  ETV
280	44111 34882 538 1644301 1.005 7273.084772087266 1242 0 0 0 0
vector 281  csma802154net.dataCentricNetworkMan  DiscoveryPacketFrequency  ETV
281	78993 34882 538 1644301 1.005 7273.084772087266 1242 0 0 0 0
vector 282  csma802154net.dataCentricNetworkMan  RegisterPacketFrequency  ETV
282	113875 34882 538 1644301 1.005 7273.084772087266 1242 0 1 12 12
vector 283  csma802154net.dataCentricNetworkMan  RReplyPacketFrequency  ETV
283	148757 34894 538 1644301 1.005 7273.084772087266 1242 0 61 1163 28097
vector 284  csma802154net.dataCentricNetworkMan  AODVDataPacketFrequency  ETV
284	183651 34899 538 1644301 1.005 7273.084772087266 1242 0 60 1225 23399
vector 291  csma802154net.dataCentricNetworkMan  pendingRegistrationVector  ETV
291	232676 583 21474 432804 43.5 54.700682214386 24 0 1 12 12
vector 290  csma802154net.dataCentricNetworkMan  pendingRREQVector  ETV
290	231274 1402 21479 437532 43.50001 54.737280294292 50 0 1 16 16
vector 285  csma802154net.dataCentricNetworkMan  AODVDataLineBreakVector  ETV
285	218550 30 248476 248476 49.768480086196 49.768480086196 1 1 1 1 1
vector 288  csma802154net.dataCentricNetworkMan  PendingDataPacketsVector  ETV
288	218580 12694 447792 1644124 70 7273.075340149751 416 0 3 520 1040
vector 293  csma802154net.fixhost[1].udpApp  "End-to-end delay"  ETV
293	233259 589 448376 1628603 70.008996024418 7270.007396024418 13 0.006756024418 0.011236024417 0.111508317433 0.00098071477358997
vector 276  csma802154net.dataCentricNetworkMan  dataPacketE2EDelay  ETV
276	2160 7016 448376 1644124 70.008996024418 7273.075340149751 156 0.006756024418 0.114620211216 6.397128107104 0.34893895564078
vector 297  csma802154net.fixhost[5].udpApp  "End-to-end delay"  ETV
297	234437 589 449036 1629262 70.016916071508 7270.014356071507 13 0.014356071507 0.043084071508 0.264420929599 0.0060137461841784
vector 296  csma802154net.fixhost[4].udpApp  "End-to-end delay"  ETV
296	233848 589 449378 1629605 70.022036060992 7270.023316060993 13 0.014676060993 0.023564060991 0.262356792903 0.0053876590915379
vector 308  csma802154net.fixhost[16].udpApp  "End-to-end delay"  ETV
308	238538 569 452045 1632830 71.03251608297 7271.03116408297 13 0.022916082969 0.03251608297 0.360093078605 0.010088589881511
vector 314  csma802154net.fixhost[22].udpApp  "End-to-end delay"  ETV
314	239692 583 453145 1633526 71.043564123661 7271.038764123661 13 0.034036123662 0.068132123662 0.577781607595 0.026932339842178
vector 311  csma802154net.fixhost[19].udpApp  "End-to-end delay"  ETV
311	239107 585 453486 1632168 71.056372088451 7271.028604088451 13 0.025796088451 0.06710808845 0.504613149867 0.022550849539205
vector 301  csma802154net.fixhost[9].udpApp  "End-to-end delay"  ETV
301	236198 583 456680 1636917 72.031156113924 7272.041004113922 13 0.031156113924 0.070012137819 0.634821490367 0.033062122561207
vector 298  csma802154net.fixhost[6].udpApp  "End-to-end delay"  ETV
298	235026 585 457367 1636140 72.051604098721 7272.02863609872 13 0.023876074824 0.051604098721 0.407093187785 0.013516995780581
vector 305  csma802154net.fixhost[13].udpApp  "End-to-end delay"  ETV
305	237957 581 458389 1638273 72.06560414693 7272.066852124333 13 0.040292124332 0.094620124332 0.894245799104 0.065342237224963
vector 300  csma802154net.fixhost[8].udpApp  "End-to-end delay"  ETV
300	235611 587 461658 1641366 73.034996107262 7273.032756107262 13 0.032756107262 0.053156155057 0.493949609474 0.019153139339541
vector 302  csma802154net.fixhost[10].udpApp  "End-to-end delay"  ETV
302	236781 589 463369 1643083 73.046404128072 7273.065852128072 13 0.046404128072 0.105772182702 0.840117907348 0.057053423509967
vector 303  csma802154net.fixhost[11].udpApp  "End-to-end delay"  ETV
303	237370 587 464071 1644124 73.053404149752 7273.075340149751 13 0.053404149752 0.114620211216 1.046126237024 0.088857137912324
