version 2
run AODVScenario_1f-61-20121121-15:00:01-3448
attr configname AODVScenario_1f
attr datetime 20121121-15:00:01
attr experiment AODVScenario_1f
attr inifile AODV.ini
attr iterationvars $numNodes=111
attr iterationvars2 "$numNodes=111, $repetition=0"
attr measurement $numNodes=111
attr network csma802154net
attr numNodes 111
attr processid 3448
attr repetition 0
attr replication #0
attr resultdir results
attr runnumber 61
attr seedset 61

vector 455  csma802154net.dataCentricNetworkMan  RREQPacketFrequency  ETV
vector 456  csma802154net.dataCentricNetworkMan  RERRPacketFrequency  ETV
vector 457  csma802154net.dataCentricNetworkMan  DiscoveryPacketFrequency  ETV
vector 458  csma802154net.dataCentricNetworkMan  RegisterPacketFrequency  ETV
vector 459  csma802154net.dataCentricNetworkMan  RReplyPacketFrequency  ETV
vector 460  csma802154net.dataCentricNetworkMan  AODVDataPacketFrequency  ETV
vector 467  csma802154net.dataCentricNetworkMan  pendingRegistrationVector  ETV
vector 466  csma802154net.dataCentricNetworkMan  pendingRREQVector  ETV
vector 464  csma802154net.dataCentricNetworkMan  PendingDataPacketsVector  ETV
vector 473  csma802154net.fixhost[5].udpApp  "End-to-end delay"  ETV
vector 452  csma802154net.dataCentricNetworkMan  dataPacketE2EDelay  ETV
vector 476  csma802154net.fixhost[8].udpApp  "End-to-end delay"  ETV
vector 477  csma802154net.fixhost[9].udpApp  "End-to-end delay"  ETV
vector 487  csma802154net.fixhost[19].udpApp  "End-to-end delay"  ETV
vector 485  csma802154net.fixhost[17].udpApp  "End-to-end delay"  ETV
vector 478  csma802154net.fixhost[10].udpApp  "End-to-end delay"  ETV
vector 472  csma802154net.fixhost[4].udpApp  "End-to-end delay"  ETV
vector 474  csma802154net.fixhost[6].udpApp  "End-to-end delay"  ETV
452	1132698	70.013436033275	0.013436033275
452	1133229	70.017876054976	0.017876054976
452	1136728	71.026796069114	0.026796069114
452	1138494	71.041076125185	0.041076125185
452	1139179	71.06604409361	0.06604409361
452	1142757	72.045636079153	0.045636079153
452	1147729	73.100996085081	0.100996085081
452	1148304	73.107604115023	0.107604115023
452	1285823	670.010876033275	0.010876033275
452	1286354	670.016276054976	0.016276054976
452	1289891	671.02387609361	0.02387609361
452	1291511	671.050652069113	0.050652069113
452	1293153	671.061732125185	0.061732125185
452	1296716	672.028996079152	0.028996079152
452	1300591	673.025796085081	0.025796085081
452	1302279	673.062732115022	0.062732115022
452	1439798	1270.013436033275	0.013436033275
452	1440329	1270.018196054975	0.018196054975
452	1443335	1271.022316069114	0.022316069114
452	1444943	1271.033652093611	0.033652093611
452	1446075	1271.042532125186	0.042532125186
452	1449638	1272.025156079153	0.025156079153
452	1453805	1273.030236112497	0.030236112497
452	1455790	1273.061484146343	0.061484146343
452	1593420	1870.011516033275	0.011516033275
452	1593950	1870.014996054976	0.014996054976
452	1598263	1871.032156117721	0.032156117721
452	1599377	1871.042956155639	0.042956155639
452	1599922	1871.05541209361	0.05541209361
452	1603498	1872.023236079151	0.023236079151
452	1607373	1873.025796085081	0.025796085081
452	1609061	1873.058572115023	0.058572115023
452	1746580	2470.013756033275	0.013756033275
452	1747111	2470.017236054976	0.017236054976
452	1750117	2471.021676069114	0.021676069114
452	1751187	2471.032124093611	0.032124093611
452	1752854	2471.045412125185	0.045412125185
452	1756417	2472.025156079153	0.025156079153
452	1760048	2473.024196085081	0.024196085081
452	1761727	2473.034964115023	0.034964115023
452	1899246	3070.013116033275	0.013116033275
452	1899777	3070.017556054976	0.017556054976
452	1903435	3071.025764069113	0.025764069113
452	1904084	3071.02924409361	0.02924409361
452	1905753	3071.060524125185	0.060524125185
452	1909316	3072.026436079151	0.026436079151
452	1912944	3073.02483608508	0.02483608508
452	1914628	3073.037204115022	0.037204115022
452	2052258	3670.013756033275	0.013756033275
452	2052789	3670.017236054976	0.017236054976
452	2055795	3671.022956069113	0.022956069113
452	2057400	3671.03532409361	0.03532409361
452	2058531	3671.042532125185	0.042532125185
452	2062093	3672.022596079153	0.022596079153
452	2065953	3673.02579608508	0.02579608508
452	2067638	3673.053204115022	0.053204115022
452	2205158	4270.015036033274	0.015036033274
452	2205688	4270.019476054975	0.019476054975
452	2209223	4271.027396093611	0.027396093611
452	2210015	4271.030244069113	0.030244069113
452	2211665	4271.065252125186	0.065252125186
452	2215227	4272.024196079149	0.024196079149
452	2219391	4273.030556112494	0.030556112494
452	2220539	4273.03915614634	0.03915614634
452	2358058	4870.012796033275	0.012796033275
452	2358589	4870.017876054976	0.017876054976
452	2362245	4871.024164069114	0.024164069114
452	2364232	4871.051572093611	0.051572093611
452	2365365	4871.060452125186	0.060452125186
452	2368927	4872.023876079153	0.023876079153
452	2372785	4873.02579608508	0.02579608508
452	2374470	4873.051604115023	0.051604115023
452	2512100	5470.012476033274	0.012476033274
452	2512631	5470.015956054975	0.015956054975
452	2516699	5471.02835609361	0.02835609361
452	2517261	5471.033436117721	0.033436117721
452	2518372	5471.041356155639	0.041356155639
452	2521935	5472.027076079153	0.027076079153
452	2526105	5473.029596112494	0.029596112494
452	2527251	5473.036204146341	0.036204146341
452	2664770	6070.012796033275	0.012796033275
452	2665301	6070.017876054976	0.017876054976
452	2668307	6071.022316069114	0.022316069114
452	2669373	6071.03116409361	0.03116409361
452	2671039	6071.043564125185	0.043564125185
452	2674602	6072.028676079153	0.028676079153
452	2678770	6073.030876112496	0.030876112496
452	2679919	6073.040044146342	0.040044146342
452	2817439	6670.015036033274	0.015036033274
452	2817970	6670.020436054975	0.020436054975
452	2821203	6671.017516069114	0.017516069114
452	2822816	6671.04997209361	0.04997209361
452	2823948	6671.060452125186	0.060452125186
452	2827511	6672.025156079152	0.025156079152
452	2831260	6673.02899608508	0.02899608508
452	2833076	6673.062412115023	0.062412115023
452	2970706	7270.013436033275	0.013436033275
452	2971237	7270.017556054976	0.017556054976
452	2974243	7271.025196069113	0.025196069113
452	2975313	7271.03212409361	0.03212409361
452	2976979	7271.044452125184	0.044452125184
452	2980542	7272.028036079153	0.028036079153
452	2984290	7273.024836085081	0.024836085081
452	2986106	7273.059212115023	0.059212115023
455	881	1.005	1
455	891	1.01	0
455	1856	1.017337506397	79
455	3100	1.022337506397	40
455	5562	1.027337506397	107
455	7526	1.032337506397	90
455	10925	1.037337506397	136
455	14757	1.042337506397	70
455	16926	1.047337506397	71
455	19061	1.052337506397	88
455	21323	1.057337506397	123
455	22942	1.062337506397	81
455	24188	1.067337506397	64
455	25525	1.072337506397	109
455	26753	1.077337506397	74
455	27754	1.082337506397	73
455	29302	1.087337506397	95
455	30887	1.092337506397	101
455	32077	1.097337506397	75
455	32879	1.102337506397	42
455	33742	1.107337506397	56
455	34761	1.112337506397	116
455	34888	1.117337506397	0
455	35824	1.122535964294	73
455	36848	1.127535964294	40
455	37627	1.132535964294	89
455	38286	1.137535964294	67
455	39220	1.142535964294	92
455	40128	1.147535964294	65
455	40556	1.152535964294	14
455	41404	1.157535964294	104
455	42031	1.162535964294	32
455	42972	1.167535964294	97
455	42973	1.172535964294	0
455	44028	1.186159684423	96
455	44749	1.191159684423	78
455	44750	1.196159684423	0
455	45176	1.270546530077	40
455	45177	1.275546530077	0
455	45603	1.288874530077	40
455	45604	1.293874530077	0
455	55256	43.505	1
455	55266	43.51	0
455	57875	43.517834575959	46
455	60059	43.522834575959	0
455	61328	43.527834575959	0
455	62929	43.532848224742	0
455	63673	43.537848224742	0
455	65365	43.542848224742	0
455	66829	43.547848224742	0
455	68690	43.552848224742	0
455	70079	43.557848224742	0
455	71760	43.562848224742	0
455	73044	43.567848224742	0
455	74601	43.572848224742	0
455	76062	43.577848224742	0
455	78576	43.590858876166	0
455	79866	43.595858876166	0
455	80899	43.600858876166	0
455	81944	43.607544978783	0
455	83166	43.612544978783	0
455	84657	43.617544978783	0
455	86737	43.627279626368	0
455	87643	43.632279626368	0
455	91109	43.649583666559	0
455	92396	43.654583666559	0
455	93802	43.659583666559	0
455	95122	43.664583666559	0
455	97976	43.675676475427	0
455	99369	43.680676475427	0
455	101437	43.687856264978	0
455	102393	43.692856264978	0
455	103802	43.697856264978	0
455	105130	43.702856264978	0
455	107152	43.710206504194	0
455	108625	43.715206504194	0
455	111100	43.724610695891	0
455	112868	43.729610695891	0
455	113795	43.734610695891	0
455	115941	43.741762316613	0
455	117076	43.746762316613	0
455	118145	43.752553016233	0
455	118960	43.757553016233	0
455	120253	43.762553016233	0
455	121263	43.767553016233	0
455	122462	43.772553016233	0
455	123418	43.777553016233	0
455	124563	43.782553016233	0
455	125657	43.787553016233	0
455	129117	43.801701850286	0
455	130476	43.806701850286	0
455	131665	43.811701850286	0
455	133217	43.816701850286	0
455	134310	43.821701850286	0
455	135371	43.826701850286	0
455	135991	43.831701850286	0
455	136958	43.838232263559	0
455	137953	43.843232263559	0
455	138880	43.848232263559	0
455	139445	43.853232263559	0
455	140468	43.858566894941	0
455	141134	43.863566894941	0
455	142144	43.868566894941	0
455	142949	43.873566894941	0
455	144494	43.878566894941	0
455	145168	43.883566894941	0
455	146450	43.888566894941	0
455	146976	43.893566894941	0
455	147789	43.898566894941	0
455	148568	43.903566894941	0
455	149521	43.911144695891	0
455	150389	43.916144695891	0
455	150804	43.921777910076	0
455	151357	43.926777910076	0
455	152151	43.931777910076	0
455	153469	43.940210887894	0
455	154136	43.945210887894	0
455	154781	43.950210887894	0
455	154903	43.955210887894	0
455	155332	43.961440280877	0
455	155860	43.966440280877	0
455	156263	43.971440280877	0
455	156525	43.976440280877	0
455	156947	43.981606930662	0
455	156948	43.986606930662	0
455	157622	43.997772341812	0
455	158275	44.002772341812	0
455	158276	44.007772341812	0
455	158283	44.505	1
455	158410	44.51	0
455	160291	44.516339773374	33
455	161782	44.521339773374	0
455	162850	44.526339773374	0
455	164314	44.531339773374	0
455	165341	44.536339773374	0
455	166783	44.541339773374	0
455	168092	44.546339773374	0
455	169167	44.551339773374	0
455	169828	44.556339773374	0
455	171395	44.565568955367	0
455	172552	44.570568955367	0
455	173814	44.575568955367	0
455	174980	44.581090094808	0
455	175785	44.586090094808	0
455	176348	44.591090094808	0
455	177703	44.596090094808	0
455	178619	44.601090094808	0
455	179833	44.606090094808	0
455	180877	44.611090094808	0
455	181012	44.616090094808	0
455	183872	44.630568119563	0
455	184838	44.635568119563	0
455	185687	44.640568119563	0
455	186333	44.645568119563	0
455	187886	44.65526409589	0
455	188928	44.66026409589	0
455	189722	44.66526409589	0
455	190774	44.671495471632	0
455	191857	44.676495471632	0
455	192632	44.681495471632	0
455	193671	44.686495471632	0
455	194946	44.691495471632	0
455	195197	44.696495471632	0
455	196283	44.704229212227	0
455	197509	44.709229212227	0
455	198691	44.714229212227	0
455	199497	44.719229212227	0
455	200283	44.724229212227	0
455	201201	44.729229212227	0
455	202131	44.734229212227	0
455	202934	44.739229212227	0
455	204008	44.744229212227	0
455	205008	44.749229212227	0
455	205921	44.755799406349	0
455	206983	44.760799406349	0
455	207760	44.765799406349	0
455	208638	44.772173004325	0
455	209916	44.777173004325	0
455	210665	44.782173004325	0
455	213548	44.809745883676	0
455	214491	44.814745883676	0
455	215122	44.819745883676	0
455	216308	44.826325834145	0
455	216815	44.831325834145	0
455	218352	44.850867155371	0
455	218894	44.855867155371	0
455	219435	44.864277851904	0
455	219816	44.869277851904	0
455	220580	44.893165396149	0
455	220975	44.898165396149	0
455	220976	44.903165396149	0
455	221515	44.911534869909	0
455	221516	44.916534869909	0
455	222585	44.926141027726	0
455	222586	44.931141027726	0
455	223323	45.505	1
455	223330	45.51	0
455	225166	45.519827652371	32
455	226428	45.524827652371	0
455	228164	45.530642201259	0
455	229125	45.535642201259	0
455	229899	45.540642201259	0
455	231281	45.546208204968	0
455	232478	45.551208204968	0
455	233393	45.556208204968	0
455	234719	45.562596597615	0
455	235541	45.567596597615	0
455	236436	45.572596597615	0
455	238103	45.581406610774	0
455	239266	45.586406610774	0
455	240421	45.591408736951	0
455	241333	45.596408736951	0
455	241975	45.601408736951	0
455	243031	45.607566272527	0
455	244140	45.612566272527	0
455	247028	45.626118601044	0
455	248299	45.631118601044	0
455	249722	45.636118601044	0
455	250634	45.641118601044	0
455	251700	45.646118601044	0
455	252744	45.651118601044	0
455	255118	45.666228617746	0
455	256021	45.671228617746	0
455	256914	45.676228617746	0
455	258227	45.686165519792	0
455	258760	45.691165519792	0
455	259704	45.696165519792	0
455	260910	45.701165519792	0
455	262038	45.706165519792	0
455	263198	45.711165519792	0
455	264386	45.719175128069	0
455	264912	45.724175128069	0
455	265596	45.729175128069	0
455	266506	45.734175128069	0
455	267319	45.739175128069	0
455	269335	45.752908976662	0
455	270389	45.757908976662	0
455	270515	45.762908976662	0
455	271790	45.767908976662	0
455	273131	45.772908976662	0
455	274173	45.777908976662	0
455	274831	45.782908976662	0
455	276000	45.791059342104	0
455	276535	45.796059342104	0
455	277345	45.801059342104	0
455	278144	45.806059342104	0
455	278917	45.811059342104	0
455	279866	45.816965775858	0
455	280406	45.821965775858	0
455	281082	45.831900996784	0
455	282021	45.836900996784	0
455	282022	45.841900996784	0
455	283088	45.881302056076	0
455	283089	45.886302056076	0
455	283758	45.907403031622	0
455	284193	45.912403031622	0
455	284194	45.917403031622	0
455	284734	45.955406075029	0
455	284735	45.960406075029	0
455	284971	46.505	1
455	285313	46.51	23
455	286641	46.515	0
455	287973	46.52	0
455	289654	46.525	0
455	290564	46.53	0
455	291830	46.535	0
455	292852	46.54	0
455	294410	46.545	0
455	295366	46.55	0
455	296380	46.555	0
455	297672	46.560325762682	0
455	298336	46.565325762682	0
455	299737	46.572764619275	0
455	300513	46.577764619275	0
455	301594	46.582764619275	0
455	302372	46.587764619275	0
455	305078	46.604957785256	0
455	305974	46.609957785256	0
455	308600	46.62523118203	0
455	309383	46.63023118203	0
455	310562	46.63523118203	0
455	311618	46.640741813108	0
455	312306	46.645741813108	0
455	313232	46.650741813108	0
455	314535	46.657077790872	0
455	315319	46.662077790872	0
455	315825	46.667077790872	0
455	317922	46.676895794996	0
455	318713	46.681895794996	0
455	319640	46.686895794996	0
455	320416	46.691895794996	0
455	322165	46.703074881977	0
455	323302	46.708074881977	0
455	324199	46.713074881977	0
455	324746	46.718074881977	0
455	326307	46.727830217595	0
455	327210	46.732830217595	0
455	328058	46.737830217595	0
455	328825	46.742830217595	0
455	329609	46.750768390455	0
455	330702	46.755768390455	0
455	330837	46.760768390455	0
455	331480	46.765768390455	0
455	332489	46.771955336759	0
455	333133	46.776955336759	0
455	333651	46.781955336759	0
455	334540	46.790413813471	0
455	335195	46.795413813471	0
455	335707	46.800413813471	0
455	336834	46.831706270793	0
455	337219	46.836706270793	0
455	337220	46.841706270793	0
455	337450	47.505	1
455	337460	47.51	0
455	339613	47.51795117459	45
455	341780	47.52295117459	0
455	343520	47.52795117459	0
455	344844	47.53295117459	0
455	346180	47.538560789184	0
455	347262	47.543560789184	0
455	350789	47.556183033557	0
455	352367	47.561183033557	0
455	353537	47.566183033557	0
455	354887	47.573154665086	0
455	356121	47.578154665086	0
455	358300	47.586083074548	0
455	359477	47.591083074548	0
455	360986	47.598712526695	0
455	361934	47.603712526695	0
455	364463	47.613414648974	0
455	365680	47.618414648974	0
455	368003	47.629909769489	0
455	369247	47.634909769489	0
455	373573	47.653524084892	0
455	374485	47.658524084892	0
455	375328	47.663524084892	0
455	378925	47.679865925463	0
455	380074	47.684865925463	0
455	385422	47.705548518636	0
455	386160	47.710548518636	0
455	387602	47.715548518636	0
455	389279	47.720548518636	0
455	390752	47.725548518636	0
455	392113	47.730548518636	0
455	393324	47.735548518636	0
455	394624	47.740548518636	0
455	395712	47.745548518636	0
455	396699	47.750548518636	0
455	398044	47.755548518636	0
455	398762	47.760548518636	0
455	400116	47.765548518636	0
455	401637	47.771161567499	0
455	402341	47.776161567499	0
455	403978	47.783189740672	0
455	405296	47.788189740672	0
455	406358	47.793189740672	0
455	407032	47.798189740672	0
455	408471	47.803189740672	0
455	409300	47.810238921817	0
455	410106	47.815238921817	0
455	411734	47.820238921817	0
455	412496	47.825238921817	0
455	414657	47.834100064466	0
455	415721	47.839100064466	0
455	416269	47.844100064466	0
455	419761	47.862781797372	0
455	420411	47.867781797372	0
455	420853	47.872781797372	0
455	421881	47.877781797372	0
455	422983	47.885443579973	0
455	423817	47.890443579973	0
455	424357	47.895443579973	0
455	425552	47.9028433527	0
455	426244	47.9078433527	0
455	427004	47.9128433527	0
455	428083	47.918720164114	0
455	428646	47.923720164114	0
455	429169	47.928720164114	0
455	430834	47.948179057106	0
455	431077	47.953179057106	0
455	432288	47.962670694468	0
455	432975	47.967670694468	0
455	433543	47.976308082007	0
455	434195	47.981308082007	0
455	434637	47.986308082007	0
455	435177	47.991308082007	0
455	435298	47.996308082007	0
455	437056	48.012867539448	0
455	437578	48.017867539448	0
455	437585	48.505	1
455	437592	48.51	0
455	439580	48.519733275131	32
455	441738	48.524733275131	0
455	443100	48.530918480696	0
455	444907	48.535918480696	0
455	446176	48.540918480696	0
455	447146	48.545918480696	0
455	448363	48.550918480696	0
455	449823	48.555918480696	0
455	450992	48.56125406753	0
455	451659	48.56625406753	0
455	452565	48.57125406753	0
455	454168	48.57625406753	0
455	455115	48.58125406753	0
455	456603	48.58625406753	0
455	458081	48.59125406753	0
455	459292	48.59625406753	0
455	460215	48.60125406753	0
455	461598	48.606572167513	0
455	462898	48.611572167513	0
455	463813	48.616572167513	0
455	465137	48.621572167513	0
455	466587	48.627234454631	0
455	467650	48.632234454631	0
455	469134	48.637413901155	0
455	469775	48.642413901155	0
455	470632	48.647413901155	0
455	471788	48.652413901155	0
455	473120	48.657437920053	0
455	474576	48.662437920053	0
455	475503	48.667437920053	0
455	476612	48.672437920053	0
455	477700	48.677437920053	0
455	478756	48.682437920053	0
455	480492	48.694028099779	0
455	481892	48.699028099779	0
455	482539	48.704028099779	0
455	483585	48.709028099779	0
455	484590	48.714028099779	0
455	485125	48.719028099779	0
455	486744	48.726072346733	0
455	488053	48.731072346733	0
455	488719	48.736072346733	0
455	489531	48.741072346733	0
455	490896	48.753738472957	0
455	492505	48.758738472957	0
455	493396	48.763738472957	0
455	494468	48.768800802051	0
455	495004	48.773800802051	0
455	496232	48.779927482465	0
455	497321	48.784927482465	0
455	498228	48.789927482465	0
455	498647	48.795647504529	0
455	499426	48.800647504529	0
455	501523	48.813012703176	0
455	502043	48.818012703176	0
455	502567	48.823012703176	0
455	502703	48.828012703176	0
455	504900	48.839733528406	0
455	505579	48.844733528406	0
455	506104	48.849733528406	0
455	506767	48.854913318892	0
455	507188	48.859913318892	0
455	508024	48.864913318892	0
455	508297	48.869913318892	0
455	509401	48.886112824107	0
455	509402	48.891112824107	0
455	509678	49.505	1
455	509805	49.51	0
455	511749	49.516493455963	32
455	513314	49.521493455963	0
455	514811	49.526493455963	0
455	516777	49.531493455963	0
455	517619	49.536493455963	0
455	519236	49.541493455963	0
455	520523	49.546493455963	0
455	522138	49.551493455963	0
455	523458	49.556493455963	0
455	524235	49.561493455963	0
455	525577	49.567977612985	0
455	526923	49.572977612985	0
455	528047	49.577977612985	0
455	528922	49.582977612985	0
455	529730	49.587977612985	0
455	530967	49.593147897711	0
455	531909	49.598147897711	0
455	533029	49.603147897711	0
455	533809	49.608147897711	0
455	535010	49.613147897711	0
455	536125	49.618147897711	0
455	537884	49.626707868234	0
455	538954	49.631707868234	0
455	539791	49.639717094926	0
455	540498	49.644717094926	0
455	541559	49.649717094926	0
455	542539	49.656076671394	0
455	543532	49.661076671394	0
455	547822	49.681830111881	0
455	549274	49.686830111881	0
455	552061	49.705782829081	0
455	552914	49.710782829081	0
455	554077	49.715782829081	0
455	556668	49.727708691998	0
455	557625	49.732708691998	0
455	558477	49.737708691998	0
455	559125	49.742708691998	0
455	560470	49.750274331467	0
455	561040	49.755274331467	0
455	562122	49.760274331467	0
455	563352	49.765274331467	0
455	564532	49.770274331467	0
455	566045	49.779003550937	0
455	566591	49.784003550937	0
455	567243	49.789003550937	0
455	568622	49.795275302584	0
455	569419	49.800275302584	0
455	571412	49.817108329054	0
455	572059	49.822108329054	0
455	572916	49.827108329054	0
455	573890	49.832108329054	0
455	574425	49.837108329054	0
455	575077	49.844991891954	0
455	576189	49.849991891954	0
455	576641	49.854991891954	0
455	577320	49.859991891954	0
455	578280	49.864991891954	0
455	578404	49.869991891954	0
455	578844	49.875060753347	0
455	578965	49.880060753347	0
455	579959	49.899985472071	0
455	579960	49.904985472071	0
455	580539	49.913508793567	0
455	580540	49.918508793567	0
455	580809	50.505	1
455	580930	50.51	0
455	582848	50.515167519487	40
455	584506	50.520167519487	0
455	586685	50.525863501378	0
455	588189	50.530863501378	0
455	589663	50.535863501378	0
455	591086	50.540863501378	0
455	592856	50.545863501378	0
455	595003	50.550863501378	0
455	596901	50.555863501378	0
455	598015	50.560863501378	0
455	598893	50.565863501378	0
455	600074	50.571834213944	0
455	601578	50.576834213944	0
455	603677	50.583258348419	0
455	604893	50.588258348419	0
455	605581	50.593258348419	0
455	606415	50.598987856514	0
455	607772	50.603987856514	0
455	608884	50.608987856514	0
455	610300	50.613987856514	0
455	611772	50.618987856514	0
455	613401	50.626232239889	0
455	614498	50.631232239889	0
455	615451	50.636232239889	0
455	616849	50.642180045787	0
455	617774	50.647180045787	0
455	621164	50.664708018537	0
455	622395	50.669708018537	0
455	623386	50.674708018537	0
455	625175	50.68215528768	0
455	626250	50.68715528768	0
455	627355	50.69215528768	0
455	628063	50.69715528768	0
455	629548	50.70215528768	0
455	630405	50.70715528768	0
455	631666	50.712164366544	0
455	632731	50.717164366544	0
455	635633	50.729509384624	0
455	636718	50.734509384624	0
455	637803	50.739509384624	0
455	638600	50.744509384624	0
455	639742	50.749509384624	0
455	640477	50.754509384624	0
455	641540	50.759509384624	0
455	642230	50.764509384624	0
455	643582	50.769953279498	0
455	645073	50.774953279498	0
455	646033	50.779953279498	0
455	647684	50.789192431595	0
455	649178	50.794192431595	0
455	650011	50.799192431595	0
455	651542	50.80477730285	0
455	652618	50.80977730285	0
455	653403	50.81477730285	0
455	657661	50.838017316556	0
455	658504	50.843017316556	0
455	659725	50.848017316556	0
455	661780	50.859131402587	0
455	662436	50.864131402587	0
455	663723	50.870789177284	0
455	664399	50.875789177284	0
455	665213	50.881526888788	0
455	666288	50.886526888788	0
455	667662	50.898107418289	0
455	668505	50.903107418289	0
455	669537	50.913699674301	0
455	669945	50.918699674301	0
455	670515	50.923787522473	0
455	671036	50.928787522473	0
455	671484	50.933787522473	0
455	671485	50.938787522473	0
455	672727	50.953991095892	0
455	673170	50.958991095892	0
455	673171	50.963991095892	0
455	674284	50.976046736653	0
455	674285	50.981046736653	0
455	675774	51.009412146379	0
455	676225	51.014412146379	0
455	676226	51.019412146379	0
455	676271	51.505	1
455	676862	51.51	49
455	678680	51.515	0
455	681506	51.52	0
455	682895	51.525	0
455	684655	51.53	0
455	685714	51.535	0
455	688056	51.542216117646	0
455	689282	51.547216117646	0
455	690404	51.552216117646	0
455	691671	51.557216117646	0
455	693041	51.562216117646	0
455	694407	51.567216117646	0
455	695950	51.572216117646	0
455	697170	51.577216117646	0
455	701149	51.593033294628	0
455	701961	51.598033294628	0
455	705029	51.610664765066	0
455	706387	51.615664765066	0
455	707626	51.620664765066	0
455	710264	51.631742358173	0
455	711246	51.636742358173	0
455	712450	51.641742358173	0
455	713552	51.646742358173	0
455	716310	51.659604098753	0
455	716828	51.664604098753	0
455	721344	51.681852840793	0
455	722242	51.686852840793	0
455	723481	51.691852840793	0
455	725388	51.699807638169	0
455	726765	51.704807638169	0
455	730837	51.720146889621	0
455	732049	51.725146889621	0
455	733430	51.730524355466	0
455	734768	51.735524355466	0
455	736025	51.742247705569	0
455	737281	51.747247705569	0
455	738897	51.752247705569	0
455	740170	51.757247705569	0
455	741132	51.762247705569	0
455	743227	51.772025370981	0
455	744456	51.777025370981	0
455	745575	51.782025370981	0
455	746929	51.787025370981	0
455	748145	51.792025370981	0
455	749809	51.801012364839	0
455	750780	51.806012364839	0
455	752289	51.813600636061	0
455	753095	51.818600636061	0
455	754636	51.825403258923	0
455	755878	51.830403258923	0
455	756751	51.835403258923	0
455	757958	51.841517326007	0
455	759011	51.846517326007	0
455	760419	51.855399991457	0
455	761267	51.860399991457	0
455	762119	51.865399991457	0
455	763082	51.870399991457	0
455	764807	51.875399991457	0
455	765996	51.880399991457	0
455	766671	51.885399991457	0
455	768364	51.894306491026	0
455	769352	51.899306491026	0
455	770060	51.904306491026	0
455	771314	51.909306491026	0
455	772036	51.914306491026	0
455	772890	51.919306491026	0
455	774211	51.925822393672	0
455	774778	51.930822393672	0
455	776040	51.936119094007	0
455	776909	51.941119094007	0
455	777419	51.946119094007	0
455	778554	51.951119094007	0
455	778857	51.956119094007	0
455	779538	51.961119094007	0
455	780877	51.968730051773	0
455	781567	51.973730051773	0
455	782298	51.978730051773	0
455	782868	51.983730051773	0
455	784239	51.992402041979	0
455	784798	51.997402041979	0
455	785150	52.002402041979	0
455	786125	52.007778201137	0
455	786827	52.012778201137	0
455	787394	52.017778201137	0
455	787847	52.023092228474	0
455	787848	52.028092228474	0
455	789010	52.054918689283	0
455	789581	52.059918689283	0
455	789582	52.064918689283	0
455	790138	52.07644223219	0
455	790139	52.08144223219	0
455	790169	52.505	1
455	790615	52.51	39
455	792584	52.515	0
455	794763	52.52	0
455	796771	52.525	0
455	798552	52.53	0
455	799222	52.535	0
455	800927	52.541148363758	0
455	802494	52.546148363758	0
455	804125	52.551148363758	0
455	805778	52.556148363758	0
455	807496	52.561148363758	0
455	808905	52.566148363758	0
455	810924	52.571148363758	0
455	812150	52.576148363758	0
455	813156	52.581148363758	0
455	814754	52.586148363758	0
455	815584	52.591148363758	0
455	816635	52.596148363758	0
455	818025	52.601364893825	0
455	819007	52.606364893825	0
455	820241	52.611364893825	0
455	822717	52.620704629262	0
455	824009	52.625704629262	0
455	825379	52.630752471791	0
455	826807	52.635752471791	0
455	828594	52.64604549661	0
455	829796	52.65104549661	0
455	830873	52.65604549661	0
455	832296	52.66104549661	0
455	833239	52.66604549661	0
455	835087	52.67104549661	0
455	836361	52.67604549661	0
455	837724	52.68104549661	0
455	838679	52.68604549661	0
455	839695	52.69104549661	0
455	840608	52.69604549661	0
455	841726	52.702084845673	0
455	842880	52.707084845673	0
455	843777	52.712084845673	0
455	845185	52.717084845673	0
455	846100	52.722084845673	0
455	849267	52.738755589922	0
455	850362	52.743755589922	0
455	851578	52.748755589922	0
455	852418	52.753755589922	0
455	854189	52.766270154253	0
455	855319	52.771270154253	0
455	856002	52.776270154253	0
455	857366	52.781270154253	0
455	858478	52.786270154253	0
455	859020	52.791270154253	0
455	859735	52.796270154253	0
455	860776	52.801270154253	0
455	861496	52.806270154253	0
455	862614	52.811270154253	0
455	863478	52.816270154253	0
455	864723	52.821270154253	0
455	864847	52.826270154253	0
455	865977	52.831671295322	0
455	866121	52.836671295322	0
455	866821	52.843763271741	0
455	868076	52.848763271741	0
455	868205	52.853763271741	0
455	869156	52.860434757681	0
455	869277	52.865434757681	0
455	870432	52.871692823737	0
455	870856	52.876692823737	0
455	871375	52.881692823737	0
455	872627	52.906467081104	0
455	873055	52.911467081104	0
455	873056	52.916467081104	0
455	873602	52.933511789871	0
455	874305	52.938511789871	0
455	874781	52.943511789871	0
455	875624	52.948511789871	0
455	875897	52.953511789871	0
455	876181	53.505	1
455	877129	53.51	38
455	879176	53.515	0
455	881060	53.52	0
455	882688	53.525	0
455	884106	53.53	0
455	886202	53.535	0
455	887848	53.54	0
455	889708	53.545	0
455	891506	53.55	0
455	892286	53.555	0
455	894249	53.56	0
455	894967	53.565	0
455	896247	53.57	0
455	897236	53.575	0
455	898458	53.58	0
455	900039	53.585	0
455	901142	53.590159531457	0
455	901982	53.595159531457	0
455	903158	53.600159531457	0
455	903865	53.605159531457	0
455	905496	53.610615727788	0
455	906877	53.615615727788	0
455	908137	53.620615727788	0
455	909908	53.625615727788	0
455	911353	53.630615727788	0
455	912616	53.638133130196	0
455	913894	53.643133130196	0
455	916119	53.654825821174	0
455	917878	53.659825821174	0
455	918888	53.664825821174	0
455	919842	53.669825821174	0
455	921098	53.674825821174	0
455	922415	53.679825821174	0
455	924443	53.685215228129	0
455	925179	53.690215228129	0
455	927607	53.698015449204	0
455	928414	53.703015449204	0
455	930178	53.708015449204	0
455	931428	53.713015449204	0
455	932984	53.718015449204	0
455	934477	53.723015449204	0
455	935426	53.728015449204	0
455	936766	53.733015449204	0
455	937815	53.738015449204	0
455	938932	53.743015449204	0
455	941934	53.755910823437	0
455	943693	53.760910823437	0
455	945199	53.765910823437	0
455	946033	53.770910823437	0
455	947202	53.775910823437	0
455	948141	53.780910823437	0
455	949392	53.785910823437	0
455	950242	53.790910823437	0
455	951730	53.795910823437	0
455	952819	53.800910823437	0
455	953713	53.807698249935	0
455	954640	53.812698249935	0
455	955449	53.817698249935	0
455	958227	53.836426757084	0
455	959217	53.841426757084	0
455	960339	53.846426757084	0
455	963497	53.863112440181	0