file 255026 1353539961                                          
version 2
run AODVScenario_1f-56-20121121-14:58:09-5208
attr configname AODVScenario_1f
attr datetime 20121121-14:58:09
attr experiment AODVScenario_1f
attr inifile AODV.ini
attr iterationvars $numNodes=106
attr iterationvars2 "$numNodes=106, $repetition=0"
attr measurement $numNodes=106
attr network csma802154net
attr numNodes 106
attr processid 5208
attr repetition 0
attr replication #0
attr resultdir results
attr runnumber 56
attr seedset 56
vector 435  csma802154net.dataCentricNetworkMan  RREQPacketFrequency  ETV
435	7861 38066 1127 2758291 1.005 7273.069804105516 1345 0 101 2467 156071
vector 436  csma802154net.dataCentricNetworkMan  RERRPacketFrequency  ETV
436	45927 38019 1127 2758291 1.005 7273.069804105516 1345 0 0 0 0
vector 437  csma802154net.dataCentricNetworkMan  DiscoveryPacketFrequency  ETV
437	83946 38019 1127 2758291 1.005 7273.069804105516 1345 0 0 0 0
vector 438  csma802154net.dataCentricNetworkMan  RegisterPacketFrequency  ETV
438	121965 38019 1127 2758291 1.005 7273.069804105516 1345 0 1 12 12
vector 439  csma802154net.dataCentricNetworkMan  RReplyPacketFrequency  ETV
439	159984 38032 1127 2758291 1.005 7273.069804105516 1345 0 113 1569 62241
vector 440  csma802154net.dataCentricNetworkMan  AODVDataPacketFrequency  ETV
440	198016 38039 1127 2758291 1.005 7273.069804105516 1345 0 99 1393 47551
vector 447  csma802154net.dataCentricNetworkMan  pendingRegistrationVector  ETV
447	248586 526 45841 901446 43.5 54.647757922868 22 1 3 37 71
vector 446  csma802154net.dataCentricNetworkMan  pendingRREQVector  ETV
446	247266 1320 45846 883455 43.50001 54.528993603957 47 0 1 15 15
vector 444  csma802154net.dataCentricNetworkMan  PendingDataPacketsVector  ETV
444	236055 11211 912763 2758048 70 7273.060204118393 364 0 3 390 702
vector 466  csma802154net.fixhost[18].udpApp  "End-to-end delay"  ETV
466	253852 594 914191 2737024 70.016636036908 7270.011196036909 13 0.010876036909 0.016636036908 0.174988479814 0.0023944656051866
vector 432  csma802154net.dataCentricNetworkMan  dataPacketE2EDelay  ETV
432	1947 5914 914191 2758048 70.016636036908 7273.060204118393 130 0.010876036909 0.112116101387 4.996244315422 0.23877611717544
vector 470  csma802154net.fixhost[22].udpApp  "End-to-end delay"  ETV
470	254446 580 915262 2738096 70.026156075539 7270.02007607554 13 0.02007607554 0.026476075539 0.298428982014 0.0069111742542862
vector 460  csma802154net.fixhost[12].udpApp  "End-to-end delay"  ETV
460	252080 594 918201 2741555 71.023596067393 7271.022564067392 13 0.019436067392 0.029596117103 0.286364925813 0.0063840059081047
vector 461  csma802154net.fixhost[13].udpApp  "End-to-end delay"  ETV
461	252674 594 920028 2743158 71.042324102369 7271.052884102369 13 0.031196102367 0.054164102369 0.512381330792 0.02102235701546
vector 462  csma802154net.fixhost[14].udpApp  "End-to-end delay"  ETV
462	253268 584 921094 2744763 71.063692116971 7271.068380148311 13 0.03048411697 0.086340116971 0.684741564925 0.039485459385197
vector 449  csma802154net.fixhost[1].udpApp  "End-to-end delay"  ETV
449	249112 594 925617 2748365 72.033436101388 7272.025796075288 13 0.025796075288 0.112116101387 0.515685135339 0.027306381361002
vector 452  csma802154net.fixhost[4].udpApp  "End-to-end delay"  ETV
452	249706 594 926673 2751099 72.039724125067 7272.063692099288 13 0.035284099288 0.072932125067 0.672421445415 0.037071671829672
vector 453  csma802154net.fixhost[5].udpApp  "End-to-end delay"  ETV
453	250300 594 927759 2751628 72.046692126778 7272.065572126778 13 0.036916126779 0.093588126779 0.787693648116 0.050929038460424
vector 459  csma802154net.fixhost[11].udpApp  "End-to-end delay"  ETV
459	251488 592 933600 2758048 73.036844118393 7273.060204118393 13 0.033716118393 0.065892118389 0.600821539098 0.029315458568679
vector 455  csma802154net.fixhost[7].udpApp  "End-to-end delay"  ETV
455	250894 594 934662 2756694 73.057612097239 7273.028956097239 13 0.028956097239 0.062980097238 0.462717264096 0.01795610478743
