version 2
run AODVScenario_1f-64-20121121-15:01:19-2020
attr configname AODVScenario_1f
attr datetime 20121121-15:01:19
attr experiment AODVScenario_1f
attr inifile AODV.ini
attr iterationvars $numNodes=114
attr iterationvars2 "$numNodes=114, $repetition=0"
attr measurement $numNodes=114
attr network csma802154net
attr numNodes 114
attr processid 2020
attr repetition 0
attr replication #0
attr resultdir results
attr runnumber 64
attr seedset 64

vector 467  csma802154net.dataCentricNetworkMan  RREQPacketFrequency  ETV
vector 468  csma802154net.dataCentricNetworkMan  RERRPacketFrequency  ETV
vector 469  csma802154net.dataCentricNetworkMan  DiscoveryPacketFrequency  ETV
vector 470  csma802154net.dataCentricNetworkMan  RegisterPacketFrequency  ETV
vector 471  csma802154net.dataCentricNetworkMan  RReplyPacketFrequency  ETV
vector 472  csma802154net.dataCentricNetworkMan  AODVDataPacketFrequency  ETV
vector 479  csma802154net.dataCentricNetworkMan  pendingRegistrationVector  ETV
vector 478  csma802154net.dataCentricNetworkMan  pendingRREQVector  ETV
vector 473  csma802154net.dataCentricNetworkMan  AODVDataLineBreakVector  ETV
vector 476  csma802154net.dataCentricNetworkMan  PendingDataPacketsVector  ETV
vector 492  csma802154net.fixhost[12].udpApp  "End-to-end delay"  ETV
vector 464  csma802154net.dataCentricNetworkMan  dataPacketE2EDelay  ETV
vector 499  csma802154net.fixhost[19].udpApp  "End-to-end delay"  ETV
vector 501  csma802154net.fixhost[21].udpApp  "End-to-end delay"  ETV
vector 485  csma802154net.fixhost[5].udpApp  "End-to-end delay"  ETV
vector 487  csma802154net.fixhost[7].udpApp  "End-to-end delay"  ETV
vector 486  csma802154net.fixhost[6].udpApp  "End-to-end delay"  ETV
vector 497  csma802154net.fixhost[17].udpApp  "End-to-end delay"  ETV
vector 484  csma802154net.fixhost[4].udpApp  "End-to-end delay"  ETV
vector 490  csma802154net.fixhost[10].udpApp  "End-to-end delay"  ETV
464	1338648	70.01475602275	0.01475602275
464	1339165	70.019836045571	0.019836045571
464	1339710	70.02363606691	0.02363606691
464	1342654	71.021964052534	0.021964052534
464	1343796	71.031804081807	0.031804081807
464	1346758	72.019724057568	0.019724057568
464	1347887	72.026116102204	0.026116102204
464	1352764	73.031556090717	0.031556090717
464	1353351	73.033684121665	0.033684121665
464	1494041	670.006436022751	0.006436022751
464	1494558	670.010556045573	0.010556045573
464	1495103	670.014676066913	0.014676066913
464	1498046	671.022284052534	0.022284052534
464	1499184	671.029956081807	0.029956081807
464	1501597	672.017236057568	0.017236057568
464	1503275	672.029564102203	0.029564102203
464	1507269	673.028676090718	0.028676090718
464	1508993	673.058892121666	0.058892121666
464	1649646	1270.006756022751	0.006756022751
464	1650163	1270.011836045573	0.011836045573
464	1650709	1270.015956066913	0.015956066913
464	1653652	1271.020044052534	0.020044052534
464	1655048	1271.048444081807	0.048444081807
464	1658021	1272.015316057568	0.015316057568
464	1659699	1272.028284102203	0.028284102203
464	1664575	1273.029564090718	0.029564090718
464	1665163	1273.031836121666	0.031836121666
464	1805930	1870.009636022751	0.009636022751
464	1806447	1870.014716045573	0.014716045573
464	1806993	1870.018516066913	0.018516066913
464	1809410	1871.019796052534	0.019796052534
464	1811062	1871.030916081807	0.030916081807
464	1814273	1872.017556057568	0.017556057568
464	1815956	1872.050044102203	0.050044102203
464	1820252	1873.026044090718	0.026044090718
464	1821422	1873.031764121666	0.031764121666
464	1962075	2470.009316022751	0.009316022751
464	1962592	2470.012796045573	0.012796045573
464	1963138	2470.017556066913	0.017556066913
464	1965556	2471.016916052534	0.016916052534
464	1967219	2471.027324081806	0.027324081806
464	1969866	2472.020116057568	0.020116057568
464	1971549	2472.051964102204	0.051964102204
464	1975528	2473.024516090718	0.024516090718
464	1977252	2473.052564121666	0.052564121666
464	2117905	3070.008036022751	0.008036022751
464	2118422	3070.013436045573	0.013436045573
464	2118968	3070.018836066913	0.018836066913
464	2121385	3071.015636052534	0.015636052534
464	2123037	3071.027396081807	0.027396081807
464	2127139	3072.024204057568	0.024204057568
464	2127694	3072.026436102204	0.026436102204
464	2131559	3073.024836090718	0.024836090718
464	2133412	3073.063372121665	0.063372121665
464	2274179	3670.009636022751	0.009636022751
464	2274696	3670.013116045573	0.013116045573
464	2275242	3670.017556066913	0.017556066913
464	2277660	3671.017236052534	0.017236052534
464	2279323	3671.028284081806	0.028284081806
464	2281736	3672.015316057568	0.015316057568
464	2283415	3672.030844102204	0.030844102204
464	2287707	3673.023556090717	0.023556090717
464	2288883	3673.031372121665	0.031372121665
464	2429536	4270.008356022749	0.008356022749
464	2430053	4270.013756045571	0.013756045571
464	2430599	4270.01883606691	0.01883606691
464	2433542	4271.018124052533	0.018124052533
464	2434684	4271.027324081806	0.027324081806
464	2437097	4272.015636057566	0.015636057566
464	2438776	4272.030524102201	0.030524102201
464	2442756	4273.025476090717	0.025476090717
464	2444480	4273.055444121666	0.055444121666
464	2585133	4870.006436022751	0.006436022751
464	2585650	4870.011836045573	0.011836045573
464	2586196	4870.016596066913	0.016596066913
464	2589948	4871.028676081806	0.028676081806
464	2591011	4871.046852052534	0.046852052534
464	2594835	4872.024516102203	0.024516102203
464	2595967	4872.047812057568	0.047812057568
464	2599702	4873.027716090717	0.027716090717
464	2601422	4873.040084121666	0.040084121666
464	2742189	5470.007076022751	0.007076022751
464	2742706	5470.012156045573	0.012156045573
464	2743252	5470.016916066913	0.016916066913
464	2745669	5471.015956052533	0.015956052533
464	2747321	5471.025476081806	0.025476081806
464	2750300	5472.018516057567	0.018516057567
464	2751979	5472.032764102203	0.032764102203
464	2756241	5473.034076121664	0.034076121664
464	2757436	5473.042932090717	0.042932090717
464	2898102	6070.009636022751	0.009636022751
464	2898619	6070.014076045573	0.014076045573
464	2899165	6070.018196066913	0.018196066913
464	2901815	6071.021396052533	0.021396052533
464	2903483	6071.054524081807	0.054524081807
464	2905895	6072.016916057568	0.016916057568
464	2907569	6072.027396102204	0.027396102204
464	2911861	6073.028036090718	0.028036090718
464	2913579	6073.037204121666	0.037204121666
464	3054232	6670.009316022751	0.009316022751
464	3054749	6670.014396045572	0.014396045572
464	3055295	6670.018516066911	0.018516066911
464	3058810	6671.025476081806	0.025476081806
464	3059351	6671.031172052532	0.031172052532
464	3061794	6672.017236057568	0.017236057568
464	3063472	6672.029884102204	0.029884102204
464	3067220	6673.026116090718	0.026116090718
464	3068934	6673.036244121666	0.036244121666
464	3209701	7270.007396022751	0.007396022751
464	3210218	7270.012156045573	0.012156045573
464	3210764	7270.017236066913	0.017236066913
464	3214255	7271.026516052534	0.026516052534
464	3214845	7271.030204081807	0.030204081807
464	3217257	7272.014996057567	0.014996057567
464	3218936	7272.027324102202	0.027324102202
464	3223813	7273.031484090717	0.031484090717
464	3224400	7273.034076121664	0.034076121664
467	914	1.005	1
467	1206	1.01	18
467	1834	1.015	36
467	2806	1.02	46
467	4474	1.025	102
467	6237	1.03	139
467	8889	1.035	132
467	11603	1.04	77
467	14341	1.045	54
467	17281	1.05	69
467	19952	1.055	65
467	21381	1.06	99
467	22690	1.065	54
467	24286	1.07	96
467	25594	1.075	121
467	26659	1.08	92
467	27942	1.085	64
467	29282	1.09	76
467	30315	1.095	90
467	31287	1.1	75
467	32458	1.105	38
467	33428	1.11	100
467	33919	1.115	51
467	33923	1.12	0
467	34352	1.128182196451	40
467	35199	1.133182196451	75
467	36296	1.138182196451	78
467	36423	1.143182196451	0
467	36795	1.148607008593	52
467	37457	1.153607008593	62
467	37874	1.158607008593	37
467	38341	1.163607008593	47
467	38630	1.168607008593	36
467	38631	1.173607008593	0
467	39068	1.183529336566	41
467	39069	1.188529336566	0
467	49111	43.505	1
467	50089	43.51	14
467	51059	43.515	0
467	52097	43.52	0
467	52955	43.525298027751	0
467	53458	43.530298027751	0
467	54374	43.535298027751	0
467	54921	43.540298027751	0
467	56032	43.545298027751	0
467	57070	43.550298027751	0
467	57729	43.555298027751	0
467	58364	43.560298027751	0
467	58908	43.565298027751	0
467	59405	43.570298027751	0
467	60438	43.57665813447	0
467	61194	43.58165813447	0
467	61580	43.587203959497	0
467	62456	43.592203959497	0
467	63096	43.597203959497	0
467	64639	43.604853897977	0
467	64766	43.609853897977	0
467	65648	43.615758931117	0
467	65657	43.620758931117	0
467	66823	43.627725872625	0
467	67477	43.632725872625	0
467	68105	43.637725872625	0
467	68841	43.647498062205	0
467	69225	43.652498062205	0
467	69226	43.657498062205	0
467	69746	43.680902959225	0
467	69747	43.685902959225	0
467	69989	44.505	1
467	70587	44.51	41
467	73869	44.515	0
467	75737	44.52	0
467	76837	44.525	0
467	78298	44.53	0
467	79147	44.535	0
467	81089	44.542023483734	0
467	82798	44.547023483734	0
467	84009	44.552023483734	0
467	85483	44.557329847186	0
467	86707	44.562329847186	0
467	87945	44.567329847186	0
467	89559	44.572329847186	0
467	90658	44.577329847186	0
467	92131	44.582329847186	0
467	93211	44.587329847186	0
467	94837	44.594119473615	0
467	96628	44.599119473615	0
467	97699	44.604119473615	0
467	98879	44.609565185127	0
467	100468	44.614565185127	0
467	102081	44.619565185127	0
467	103604	44.626608679263	0
467	104962	44.631608679263	0
467	106085	44.636608679263	0
467	107045	44.641608679263	0
467	109209	44.652885151112	0
467	110281	44.657885151112	0
467	111381	44.662885151112	0
467	112999	44.668676268654	0
467	113797	44.673676268654	0
467	115384	44.678737748526	0
467	116452	44.683737748526	0
467	117841	44.691025180915	0
467	119220	44.696025180915	0
467	120646	44.701025180915	0
467	121658	44.706025180915	0
467	122837	44.711025180915	0
467	125803	44.724638637485	0
467	127215	44.729638637485	0
467	131453	44.745522925172	0
467	131995	44.750522925172	0
467	134036	44.758477085506	0
467	135093	44.763477085506	0
467	137394	44.771813178124	0
467	138485	44.776813178124	0
467	140097	44.78223629346	0
467	141042	44.78723629346	0
467	142612	44.794108184867	0
467	143457	44.799108184867	0
467	144380	44.804108184867	0
467	145930	44.809108184867	0
467	150350	44.83017778017	0
467	151447	44.83517778017	0
467	152519	44.84017778017	0
467	155548	44.855288696508	0
467	156583	44.860288696508	0
467	157755	44.865288696508	0
467	158793	44.870288696508	0
467	159788	44.880676851769	0
467	160195	44.885676851769	0
467	161317	44.893585113046	0
467	162235	44.898585113046	0
467	164214	44.910221073132	0
467	164932	44.915221073132	0
467	166397	44.931324079464	0
467	167492	44.936324079464	0
467	168036	44.941324079464	0
467	168593	44.94634464803	0
467	169508	44.95134464803	0
467	170279	44.95634464803	0
467	170850	44.96134464803	0
467	171647	44.96634464803	0
467	172574	44.97426526219	0
467	173161	44.97926526219	0
467	173699	44.98426526219	0
467	174241	44.99006552376	0
467	175081	44.99506552376	0
467	176020	45.00006552376	0
467	176588	45.00506552376	0
467	177154	45.056489547438	0
467	177155	45.061489547438	0
467	177291	45.505	1
467	178046	45.51	16
467	179489	45.515	0
467	180376	45.52	0
467	181398	45.525	0
467	181660	45.53	0
467	182101	45.535	0
467	182784	45.54	0
467	183464	45.545	0
467	184248	45.55	0
467	185387	45.555	0
467	186152	45.56	0
467	186815	45.565	0
467	187827	45.57	0
467	188477	45.575	0
467	189288	45.58	0
467	189698	45.585	0
467	190214	45.59	0
467	194920	45.62659001379	0
467	195569	45.63159001379	0
467	196738	45.63659001379	0
467	197896	45.64159001379	0
467	200187	45.664214023743	0
467	200567	45.669214023743	0
467	202836	45.683670121548	0
467	203866	45.688670121548	0
467	205010	45.693670121548	0
467	205540	45.698670121548	0
467	206443	45.706568133644	0
467	206725	45.711568133644	0
467	207646	45.716568133644	0
467	208171	45.721568133644	0
467	209619	45.730094082259	0
467	210513	45.735094082259	0
467	211313	45.761865971369	0
467	211314	45.766865971369	0
467	211825	45.812242248662	0
467	211826	45.817242248662	0
467	212062	46.505	1
467	212192	46.51	0
467	215000	46.516295301647	57
467	217423	46.521295301647	0
467	219447	46.526295301647	0
467	221078	46.531295301647	0
467	223110	46.537147810396	0
467	224387	46.542147810396	0
467	226959	46.548707501651	0
467	228587	46.553707501651	0
467	230208	46.558707501651	0
467	233359	46.567021339308	0
467	234207	46.572021339308	0
467	235987	46.577059759841	0
467	237576	46.582059759841	0
467	239006	46.587059759841	0
467	240630	46.592059759841	0
467	241863	46.597059759841	0
467	243590	46.602059759841	0
467	244942	46.607059759841	0
467	246748	46.612059759841	0
467	248332	46.617059759841	0
467	249177	46.622059759841	0
467	251152	46.627490282712	0
467	252635	46.632490282712	0
467	260772	46.662291774414	0
467	262172	46.667291774414	0
467	263436	46.672291774414	0
467	264868	46.677291774414	0
467	266652	46.682291774414	0
467	272495	46.706890621995	0
467	274411	46.711890621995	0
467	276115	46.716890621995	0
467	278207	46.721890621995	0
467	279596	46.726890621995	0
467	280840	46.731890621995	0
467	282904	46.736890621995	0
467	285102	46.741890621995	0
467	286230	46.746890621995	0
467	287718	46.752734349469	0
467	288885	46.757734349469	0
467	290773	46.762734349469	0
467	292400	46.767734349469	0
467	293515	46.772734349469	0
467	295110	46.777734349469	0
467	296842	46.783869677977	0
467	298596	46.788869677977	0
467	300397	46.793869677977	0
467	301371	46.798869677977	0
467	302920	46.803869677977	0
467	304288	46.808869677977	0
467	306422	46.819625643816	0
467	307952	46.824625643816	0
467	309449	46.829625643816	0
467	310458	46.834625643816	0
467	315020	46.852916074552	0
467	316690	46.857916074552	0
467	317816	46.862916074552	0
467	319333	46.868813317183	0
467	320848	46.873813317183	0
467	321527	46.878813317183	0
467	325895	46.894531347003	0
467	327104	46.899531347003	0
467	327720	46.904531347003	0
467	329278	46.909531347003	0
467	330541	46.914531347003	0
467	331471	46.919531347003	0
467	332478	46.924531347003	0
467	334186	46.933426860132	0
467	335043	46.938426860132	0
467	336046	46.943426860132	0
467	338017	46.954019613284	0
467	339724	46.959019613284	0
467	340813	46.964019613284	0
467	343216	46.975605314299	0
467	343938	46.980605314299	0
467	344883	46.985605314299	0
467	345439	46.990605314299	0
467	349610	47.01265337292	0
467	350327	47.01765337292	0
467	351755	47.025313615138	0
467	352984	47.030313615138	0
467	353576	47.035313615138	0
467	354903	47.040313615138	0
467	356068	47.047039711714	0
467	357121	47.052039711714	0
467	357929	47.057039711714	0
467	357944	47.062039711714	0
467	358470	47.067039711714	0
467	359687	47.082942166793	0
467	360660	47.087942166793	0
467	362070	47.103284150977	0
467	362638	47.108284150977	0
467	363783	47.117375140289	0
467	364365	47.122375140289	0
467	364932	47.186189433763	0
467	364933	47.191189433763	0
467	364940	47.505	1
467	364947	47.51	0
467	366843	47.518308616633	32
467	368239	47.523308616633	0
467	369797	47.528308616633	44
467	371426	47.533308616633	64
467	373635	47.538308616633	77
467	376880	47.543308616633	48
467	379342	47.548308616633	92
467	382333	47.553308616633	70
467	384361	47.558308616633	116
467	386922	47.563308616633	81
467	388886	47.568308616633	32
467	391080	47.573308616633	81
467	392832	47.578308616633	35
467	395683	47.583308616633	89
467	397325	47.588308616633	51
467	399151	47.593308616633	53
467	400550	47.598308616633	42
467	403375	47.603308616633	58
467	404794	47.608308616633	0
467	405452	47.613308616633	0
467	407141	47.618308616633	52
467	408590	47.623308616633	63
467	410156	47.628308616633	33
467	411439	47.633308616633	56
467	412980	47.638308616633	42
467	414522	47.643308616633	0
467	415238	47.648308616633	0
467	416159	47.653308616633	0
467	417963	47.658308616633	74
467	419211	47.663308616633	38
467	420684	47.668308616633	26
467	422273	47.673308616633	0
467	423290	47.678308616633	44
467	424306	47.683308616633	0
467	425254	47.688308616633	0
467	426499	47.693308616633	39
467	427441	47.698308616633	0
467	429237	47.706200458433	0
467	429911	47.711200458433	0
467	432242	47.724085827808	0
467	433103	47.729085827808	0
467	434481	47.734085827808	0
467	435698	47.739085827808	0
467	436775	47.744085827808	0
467	437584	47.749085827808	0
467	438246	47.754085827808	59
467	439344	47.759085827808	0
467	440213	47.764085827808	0
467	443146	47.778200508037	0
467	443839	47.783200508037	0
467	444271	47.788200508037	0
467	445330	47.793200508037	0
467	446368	47.798200508037	0
467	447228	47.803200508037	0
467	448412	47.808200508037	0
467	449507	47.815878076293	0
467	450180	47.820878076293	0
467	451724	47.831316004411	0
467	452536	47.836316004411	0
467	453217	47.841316004411	0
467	453929	47.846316004411	0
467	455007	47.851316004411	0
467	455713	47.856316004411	0
467	456396	47.861316004411	0
467	457499	47.866316004411	0
467	458165	47.871316004411	0
467	458711	47.877093006153	0
467	459140	47.882093006153	0
467	459531	47.887093006153	0
467	459806	47.892093006153	0
467	460752	47.89849669056	0
467	461259	47.90349669056	0
467	461796	47.915151465934	0
467	461797	47.920151465934	0
467	462042	48.505	1
467	463277	48.51	62
467	465694	48.515	0
467	467919	48.52	0
467	470408	48.525	12
467	472717	48.53	9
467	474381	48.535	40
467	477091	48.54	37
467	479595	48.545	69
467	481916	48.55	52
467	484347	48.555	1
467	486368	48.56	53
467	488990	48.565	60
467	491065	48.57	9
467	492845	48.575	27
467	494936	48.58	29
467	496960	48.585	17
467	498974	48.59	28
467	500993	48.595	8
467	502685	48.6	11
467	504992	48.605	37
467	506611	48.61	34
467	508221	48.615	13
467	509488	48.62	0
467	511170	48.625	11
467	512957	48.63	0
467	514126	48.635	0
467	516515	48.642014226296	0
467	518061	48.647014226296	0
467	519172	48.652014226296	61
467	520666	48.657014226296	0
467	524162	48.67068764206	0
467	525444	48.67568764206	0
467	526709	48.68068764206	0
467	528912	48.687681227725	0
467	530440	48.692681227725	0
467	533346	48.701719721111	21
467	534339	48.706719721111	0
467	537301	48.715888298116	0
467	538402	48.720888298116	0
467	539957	48.726273648588	0
467	541480	48.731273648588	0
467	542574	48.736273648588	0
467	543727	48.7416793873	0
467	545206	48.7466793873	0
467	546846	48.751969599529	0
467	548505	48.756969599529	0
467	549244	48.761969599529	0
467	551176	48.766969599529	0
467	552678	48.771969599529	0
467	554329	48.777484191469	0
467	555593	48.782484191469	0
467	556880	48.787484191469	0
467	558638	48.792484191469	0
467	562744	48.808568252259	0
467	564155	48.813568252259	0
467	565357	48.818568252259	0
467	567390	48.82646449159	0
467	569014	48.83146449159	0
467	570539	48.83646449159	0
467	572169	48.84146449159	0
467	573489	48.847697062843	0
467	574980	48.852697062843	0
467	575854	48.857697062843	0
467	577423	48.862697062843	0
467	578954	48.867697062843	0
467	580740	48.874429031783	0
467	582137	48.879429031783	0
467	583358	48.884429031783	0
467	584671	48.889429031783	0
467	585828	48.894429031783	0
467	587359	48.899997057387	0
467	588436	48.904997057387	0
467	590680	48.912676209928	0
467	591944	48.917676209928	0
467	593087	48.92305997957	0
467	594197	48.92805997957	0
467	595040	48.93305997957	0
467	596320	48.938497648804	0
467	597591	48.943497648804	0
467	599221	48.948497648804	0
467	600855	48.953497648804	0
467	602194	48.958497648804	0
467	603150	48.963497648804	0
467	604271	48.968497648804	0
467	605495	48.973497648804	0
467	606746	48.978497648804	0
467	607800	48.983497648804	0
467	608915	48.988497648804	0
467	610042	48.994689528306	0
467	610820	48.999689528306	0
467	612042	49.004689528306	0
467	613422	49.009689528306	0
467	614328	49.014689528306	0
467	615186	49.019689528306	0
467	616872	49.027302343036	0
467	617433	49.032302343036	0
467	619661	49.052336372248	0
467	620227	49.057336372248	0
467	620782	49.063984805506	0
467	621336	49.068984805506	0
467	622041	49.076535526159	0
467	622496	49.081535526159	0
467	622915	49.087297039103	0
467	623786	49.092297039103	0
467	624656	49.097297039103	0
467	624832	49.102297039103	0
467	624859	49.505	1
467	625507	49.51	54
467	628162	49.515	0
467	631406	49.52	0
467	633283	49.525	0
467	634570	49.53	0
467	636773	49.535613886349	0
467	638243	49.540613886349	0
467	641372	49.55039614951	0
467	642902	49.55539614951	0
467	644559	49.56039614951	0
467	646384	49.56539614951	0
467	647700	49.57039614951	0
467	649593	49.577000379024	0
467	651870	49.582000379024	0
467	653410	49.587000379024	0
467	655416	49.592000379024	0
467	656612	49.597000379024	0
467	664688	49.622346185172	0
467	666487	49.627346185172	0
467	667878	49.632346185172	0
467	670567	49.640698196216	0
467	671921	49.645698196216	0
467	673244	49.650698196216	0
467	677994	49.667528066365	0
467	679105	49.672528066365	0
467	680661	49.677528066365	0
467	681858	49.682528066365	0
467	685312	49.694345826157	0
467	686725	49.699345826157	0
467	687982	49.704345826157	0
467	690107	49.709345826157	0
467	691216	49.714345826157	0
467	693209	49.721121886117	0
467	694913	49.726121886117	0
467	696524	49.731121886117	0
467	697667	49.736121886117	0
467	699274	49.746360328064	0
467	700782	49.751360328064	0
467	702348	49.756360328064	0
467	703983	49.761360328064	0
467	705636	49.766360328064	0
467	706877	49.771360328064	0
467	708223	49.776360328064	0
467	712404	49.790956266968	0
467	714021	49.795956266968	0
467	715251	49.800956266968	0
467	717512	49.809807244846	0
467	718887	49.814807244846	0
467	720713	49.819807244846	0
467	721713	49.824807244846	0
467	723363	49.829807244846	0
467	725321	49.840246392406	0
467	727180	49.845246392406	0
467	728667	49.850246392406	0
467	732291	49.865574273436	0
467	733814	49.870574273436	0
467	734767	49.875574273436	0
467	735910	49.880574273436	0
467	736982	49.885574273436	0
467	738283	49.891203440126	0
467	739664	49.896203440126	0
467	741522	49.901203440126	0
467	742780	49.906203440126	0
467	743986	49.911203440126	0
467	744974	49.916203440126	0
467	746162	49.922562856563	0
467	747257	49.927562856563	0
467	748629	49.932562856563	0
467	750379	49.939645185703	0
467	751930	49.944645185703	0
467	753258	49.949645185703	0
467	754501	49.954645185703	0
467	755381	49.959645185703	0
467	756478	49.964645185703	0
467	757592	49.969645185703	0
467	758661	49.974645185703	0
467	759761	49.979645185703	0
467	761049	49.984645185703	0
467	761947	49.989645185703	0
467	762613	49.994645185703	0
467	763917	50.000363177469	0
467	764873	50.005363177469	0
467	765501	50.010363177469	0
467	766666	50.015363177469	0
467	767749	50.020363177469	0
467	768853	50.025363177469	0
467	769440	50.030363177469	0
467	769566	50.035363177469	0
467	770013	50.040363177469	0
467	770310	50.045363177469	0
467	771902	50.054571901962	0
467	772386	50.059571901962	0
467	772935	50.064571901962	0
467	772936	50.069571901962	0
467	773528	50.078260249783	0
467	773659	50.083260249783	0
467	774119	50.088683947612	0
467	774120	50.093683947612	0
467	774751	50.131103353368	0
467	774752	50.136103353368	0
467	774771	50.505	1
467	775744	50.51	28
467	777366	50.515	0
467	778722	50.52	0
467	779831	50.525	0
467	781149	50.53	0
467	782539	50.535	0
467	783964	50.54	0
467	785283	50.545	0
467	786646	50.550375240409	0
467	787556	50.555375240409	0
467	788803	50.560936817158	0
467	789636	50.565936817158	0
467	790956	50.571680832777	0
467	791957	50.576680832777	0
467	792886	50.581680832777	0
467	793884	50.586680832777	0
467	794764	50.591680832777	0
467	795733	50.596680832777	0
467	797478	50.601850645797	0
467	798668	50.606850645797	0
467	799936	50.61980537426	0
467	801040	50.62480537426	0
467	802369	50.62980537426	0
467	805253	50.644967896777	0
467	806163	50.649967896777	0
467	808366	50.663981403329	0
467	808795	50.668981403329	0
467	809473	50.673981403329	0
467	812581	50.689311929412	0
467	813267	50.694311929412	0
467	814756	50.699311929412	0
467	815720	50.704311929412	0
467	817313	50.711602804315	0
467	818118	50.716602804315	0
467	819069	50.721602804315	0
467	820909	50.726602804315	0
467	821581	50.731602804315	0
467	822620	50.737212850043	0
467	823449	50.742212850043	0
467	824163	50.747212850043	0
467	825803	50.752212850043	0
467	826776	50.757212850043	0
467	827819	50.762212850043	0
467	829150	50.768564460577	0
467	829823	50.773564460577	0
467	831091	50.778564460577	0
467	831973	50.783564460577	0
467	833267	50.788564460577	0
467	833687	50.793564460577	0
467	834515	50.798564460577	0
467	835627	50.803564460577	0
467	836588	50.808564460577	0
467	837418	50.813564460577	0
467	838251	50.818564460577	0
467	840370	50.849731568972	0
467	840951	50.854731568972	0
467	841635	50.859731568972	0
467	842102	50.864731568972	0
467	842103	50.869731568972	0
467	842654	50.894572451707	0
467	842655	50.899572451707	0
467	843218	50.917654436889	0
467	843219	50.922654436889	0
467	843480	51.505	1
467	844507	51.51	38
467	846658	51.515	0
467	848820	51.52	0
467	850397	51.525	0
467	851749	51.53	0
467	853190	51.535	0
467	854870	51.54	0
467	857024	51.545	0
467	858887	51.55	0
467	860620	51.555	0
467	862210	51.56	0
467	863851	51.565	0
467	865381	51.57	0
467	866574	51.575	0
467	868337	51.58	0
467	869404	51.585	0
467	870657	51.590957272685	0
467	871672	51.595957272685	0
467	872796	51.600957272685	0
467	877072	51.618937324871	0
467	877941	51.623937324871	0
467	878977	51.628937324871	0
467	880545	51.63706098717	0
467	881800	51.64206098717	0
467	883335	51.651942367313	0
467	884740	51.656942367313	0
467	886111	51.661942367313	0
467	887451	51.666942367313	0
467	888692	51.671942367313	0
467	889562	51.676942367313	0
467	890425	51.681942367313	0
467	891524	51.686942367313	0
467	893183	51.695294480067	0
467	894310	51.700294480067	0
467	895447	51.705294480067	0
467	896568	51.710294480067	0
467	897545	51.715294480067	0
467	898640	51.720294480067	0
467	900270	51.725294480067	0
467	901243	51.730294480067	0
467	902819	51.735294480067	0
467	903120	51.740294480067	0
467	903725	51.745294480067	0
467	905548	51.750294480067	0
467	906718	51.755294480067	0
467	907572	51.760294480067	0
467	908711	51.765294480067	0
467	909797	51.771046241403	0
467	911003	51.776046241403	0
467	911471	51.781046241403	0
467	912549	51.786046241403	0
467	913391	51.791046241403	0
467	915064	51.801451652878	0
467	915764	51.806451652878	0
467	916777	51.811451652878	0
467	917335	51.816451652878	0
467	918810	51.827188262645	0
467	919380	51.832188262645	0
467	919832	51.837942269277	0
467	920528	51.842942269277	0
467	921388	51.847942269277	0
467	922399	51.852942269277	0
467	922959	51.857942269277	0
467	923615	51.862942269277	0
467	924655	51.868106308028	0
467	925210	51.873106308028	0
467	925786	51.878106308028	0
467	926372	51.883106308028	0
467	927175	51.888106308028	0
467	927176	51.893106308028	0
467	927995	51.907357087238	0
467	928557	51.912357087238	0
467	929129	51.917357087238	0
467	929130	51.922357087238	0
467	930865	51.93616332735	0
467	930866	51.94116332735	0
467	931469	51.973503034682	0
467	931470	51.978503034682	0
467	932989	51.995369287438	0
467	933920	52.000369287438	0
467	934113	52.505	1
467	936195	52.51	50
467	938575	52.515	0
467	941011	52.52	0
467	943364	52.525	0
467	945049	52.53	0
467	946352	52.535	0
467	948317	52.54	0
467	949870	52.545	0
467	951543	52.55	0
467	952706	52.555	0
467	954005	52.56	0
467	956000	52.565	0
467	957831	52.57	0
467	959403	52.575	0
467	960503	52.58	0
467	963932	52.590307732062	0
467	965962	52.595307732062	0
467	966725	52.600307732062	0
467	967893	52.605307732062	0
467	969836	52.610723389143	0
467	971012	52.615723389143	0
467	972272	52.620723389143	0
467	974643	52.630037625363	0
467	975679	52.635037625363	0
467	978849	52.647560982744	0
467	979726	52.652560982744	0
467	980859	52.657560982744	0
467	981902	52.662560982744	0
467	985786	52.675971210147	0
467	987049	52.680971210147	0
467	988569	52.685971210147	0
467	990090	52.69246956448	0
467	991235	52.69746956448	0
467	992406	52.70246956448	0
467	997083	52.719760515754	0
467	998104	52.724760515754	0
467	1000521	52.734666356828	0
467	1001692	52.739666356828	0
467	1002973	52.744666356828	0
467	1004114	52.749666356828	0
467	1005636	52.754666356828	0
467	1006933	52.759666356828	0
467	1007676	52.764666356828	0
467	1008877	52.769666356828	0
467	1009725	52.774666356828	0
467	1011147	52.779796390285	0
467	1012263	52.784796390285	0
467	1014657	52.799242003349	0
467	1015203	52.804242003349	0
467	1016160	52.809242003349	0
467	1017981	52.821859161067	0
467	1019050	52.826859161067	0
467	1020050	52.831859161067	0
467	1020761	52.836859161067	0
467	1021952	52.841859161067	0
467	1022618	52.846859161067	0
467	1023630	52.851859161067	0
467	1024504	52.856859161067	0
467	1025906	52.863084189479	0
467	1026821	52.868084189479	0
467	1027634	52.873084189479	0
467	1028802	52.879240974256	0
467	1030236	52.884240974256	0
467	1031251	52.889240974256	0
467	1032723	52.894240974256	0
467	1033395	52.899240974256	0
467	1034416	52.90463053283	0
467	1035282	52.90963053283	0
467	1036396	52.91463053283	0
467	1036978	52.91963053283	0
467	1039855	52.932200640977	0
467	1040636	52.937200640977	0
467	1042958	52.950864545719	0
467	1044160	52.955864545719	0
467	1045358	52.960864545719	0
467	1046553	52.965864545719	0
467	1047565	52.970864545719	0
467	1048285	52.979501596922	0
467	1048706	52.984501596922	0
467	1050394	52.996800342452	0
467	1050624	53.001800342452	0
467	1051351	53.015734282179	0
467	1051810	53.020734282179	0
467	1051811	53.025734282179	0
467	1052394	53.087620125269	0
467	1052395	53.092620125269	0
467	1052514	53.505	1
467	1053269	53.51	65
467	1055922	53.515	0
467	1059423	53.52	8
467	1061292	53.525	0
467	1063301	53.53	47
467	1065989	53.535	21
467	1068702	53.54	14
467	1070783	53.545	14
467	1073564	53.55	23
467	1075680	53.555	52
467	1078299	53.56	23
467	1079963	53.565	6
467	1082710	53.57	16
467	1085171	53.575	46
467	1087456	53.58	15
467	1089161	53.585	11
467	1092160	53.59	0
467	1095049	53.596346785092	64
467	1096731	53.601346785092	0
467	1099208	53.608529470713	64
467	1101176	53.613529470713	0
467	1103129	53.618529470713	19
467	1105060	53.623529470713	21
467	1107678	53.628529470713	5
467	1109312	53.633529470713	0
467	1110886	53.638529470713	0
467	1112298	53.643529470713	0
467	1114128	53.648529470713	11
467	1116215	53.653529470713	0
467	1121127	53.670672039702	0
467	1122977	53.675672039702	0
467	1124479	53.680672039702	0
467	1128307	53.693184295738	0
467	1130101	53.698184295738	0
467	1133400	53.708369486464	0